<?xml version="1.0"?>
<!-- PROGRAMME=CASTEM/SORVTK   UTILISATEUR=cast2clo   DATE=04/03/2022   TITRE=disp -->
<VTKFile type="UnstructuredGrid" version="0.1">
    <UnstructuredGrid>
        <Piece NumberOfPoints="1988" NumberOfCells="1508">
            <Points>
                <DataArray type="Float32" NumberOfComponents="3" format="ascii">
                      0.100000E+01 -0.244929E-15  0.000000E+00
                      0.120000E+01 -0.293915E-15  0.000000E+00
                      0.140000E+01 -0.342901E-15  0.000000E+00
                      0.160000E+01 -0.391887E-15  0.000000E+00
                      0.180000E+01 -0.440873E-15  0.000000E+00
                      0.978148E+00  0.207912E+00  0.000000E+00
                      0.117378E+01  0.249494E+00  0.000000E+00
                      0.136941E+01  0.291076E+00  0.000000E+00
                      0.156504E+01  0.332659E+00  0.000000E+00
                      0.176067E+01  0.374241E+00  0.000000E+00
                      0.913545E+00  0.406737E+00  0.000000E+00
                      0.109625E+01  0.488084E+00  0.000000E+00
                      0.127896E+01  0.569431E+00  0.000000E+00
                      0.146167E+01  0.650779E+00  0.000000E+00
                      0.164438E+01  0.732126E+00  0.000000E+00
                      0.809017E+00  0.587785E+00  0.000000E+00
                      0.970820E+00  0.705342E+00  0.000000E+00
                      0.113262E+01  0.822899E+00  0.000000E+00
                      0.129443E+01  0.940456E+00  0.000000E+00
                      0.145623E+01  0.105801E+01  0.000000E+00
                      0.669131E+00  0.743145E+00  0.000000E+00
                      0.802957E+00  0.891774E+00  0.000000E+00
                      0.936783E+00  0.104040E+01  0.000000E+00
                      0.107061E+01  0.118903E+01  0.000000E+00
                      0.120444E+01  0.133766E+01  0.000000E+00
                      0.500000E+00  0.866025E+00  0.000000E+00
                      0.600000E+00  0.103923E+01  0.000000E+00
                      0.700000E+00  0.121244E+01  0.000000E+00
                      0.800000E+00  0.138564E+01  0.000000E+00
                      0.900000E+00  0.155885E+01  0.000000E+00
                      0.309017E+00  0.951057E+00  0.000000E+00
                      0.370820E+00  0.114127E+01  0.000000E+00
                      0.432624E+00  0.133148E+01  0.000000E+00
                      0.494427E+00  0.152169E+01  0.000000E+00
                      0.556231E+00  0.171190E+01  0.000000E+00
                      0.104528E+00  0.994522E+00  0.000000E+00
                      0.125434E+00  0.119343E+01  0.000000E+00
                      0.146340E+00  0.139233E+01  0.000000E+00
                      0.167246E+00  0.159124E+01  0.000000E+00
                      0.188151E+00  0.179014E+01  0.000000E+00
                     -0.104528E+00  0.994522E+00  0.000000E+00
                     -0.125434E+00  0.119343E+01  0.000000E+00
                     -0.146340E+00  0.139233E+01  0.000000E+00
                     -0.167246E+00  0.159124E+01  0.000000E+00
                     -0.188151E+00  0.179014E+01  0.000000E+00
                     -0.309017E+00  0.951057E+00  0.000000E+00
                     -0.370820E+00  0.114127E+01  0.000000E+00
                     -0.432624E+00  0.133148E+01  0.000000E+00
                     -0.494427E+00  0.152169E+01  0.000000E+00
                     -0.556231E+00  0.171190E+01  0.000000E+00
                     -0.500000E+00  0.866025E+00  0.000000E+00
                     -0.600000E+00  0.103923E+01  0.000000E+00
                     -0.700000E+00  0.121244E+01  0.000000E+00
                     -0.800000E+00  0.138564E+01  0.000000E+00
                     -0.900000E+00  0.155885E+01  0.000000E+00
                     -0.669131E+00  0.743145E+00  0.000000E+00
                     -0.802957E+00  0.891774E+00  0.000000E+00
                     -0.936783E+00  0.104040E+01  0.000000E+00
                     -0.107061E+01  0.118903E+01  0.000000E+00
                     -0.120444E+01  0.133766E+01  0.000000E+00
                     -0.809017E+00  0.587785E+00  0.000000E+00
                     -0.970820E+00  0.705342E+00  0.000000E+00
                     -0.113262E+01  0.822899E+00  0.000000E+00
                     -0.129443E+01  0.940456E+00  0.000000E+00
                     -0.145623E+01  0.105801E+01  0.000000E+00
                     -0.913545E+00  0.406737E+00  0.000000E+00
                     -0.109625E+01  0.488084E+00  0.000000E+00
                     -0.127896E+01  0.569431E+00  0.000000E+00
                     -0.146167E+01  0.650779E+00  0.000000E+00
                     -0.164438E+01  0.732126E+00  0.000000E+00
                     -0.978148E+00  0.207912E+00  0.000000E+00
                     -0.117378E+01  0.249494E+00  0.000000E+00
                     -0.136941E+01  0.291076E+00  0.000000E+00
                     -0.156504E+01  0.332659E+00  0.000000E+00
                     -0.176067E+01  0.374241E+00  0.000000E+00
                     -0.100000E+01  0.566554E-15  0.000000E+00
                     -0.120000E+01  0.679865E-15  0.000000E+00
                     -0.140000E+01  0.793175E-15  0.000000E+00
                     -0.160000E+01  0.906486E-15  0.000000E+00
                     -0.180000E+01  0.101980E-14  0.000000E+00
                     -0.978148E+00 -0.207912E+00  0.000000E+00
                     -0.117378E+01 -0.249494E+00  0.000000E+00
                     -0.136941E+01 -0.291076E+00  0.000000E+00
                     -0.156504E+01 -0.332659E+00  0.000000E+00
                     -0.176067E+01 -0.374241E+00  0.000000E+00
                     -0.913545E+00 -0.406737E+00  0.000000E+00
                     -0.109625E+01 -0.488084E+00  0.000000E+00
                     -0.127896E+01 -0.569431E+00  0.000000E+00
                     -0.146167E+01 -0.650779E+00  0.000000E+00
                     -0.164438E+01 -0.732126E+00  0.000000E+00
                     -0.809017E+00 -0.587785E+00  0.000000E+00
                     -0.970820E+00 -0.705342E+00  0.000000E+00
                     -0.113262E+01 -0.822899E+00  0.000000E+00
                     -0.129443E+01 -0.940456E+00  0.000000E+00
                     -0.145623E+01 -0.105801E+01  0.000000E+00
                     -0.669131E+00 -0.743145E+00  0.000000E+00
                     -0.802957E+00 -0.891774E+00  0.000000E+00
                     -0.936783E+00 -0.104040E+01  0.000000E+00
                     -0.107061E+01 -0.118903E+01  0.000000E+00
                     -0.120444E+01 -0.133766E+01  0.000000E+00
                     -0.500000E+00 -0.866025E+00  0.000000E+00
                     -0.600000E+00 -0.103923E+01  0.000000E+00
                     -0.700000E+00 -0.121244E+01  0.000000E+00
                     -0.800000E+00 -0.138564E+01  0.000000E+00
                     -0.900000E+00 -0.155885E+01  0.000000E+00
                     -0.309017E+00 -0.951057E+00  0.000000E+00
                     -0.370820E+00 -0.114127E+01  0.000000E+00
                     -0.432624E+00 -0.133148E+01  0.000000E+00
                     -0.494427E+00 -0.152169E+01  0.000000E+00
                     -0.556231E+00 -0.171190E+01  0.000000E+00
                     -0.104528E+00 -0.994522E+00  0.000000E+00
                     -0.125434E+00 -0.119343E+01  0.000000E+00
                     -0.146340E+00 -0.139233E+01  0.000000E+00
                     -0.167246E+00 -0.159124E+01  0.000000E+00
                     -0.188151E+00 -0.179014E+01  0.000000E+00
                      0.104528E+00 -0.994522E+00  0.000000E+00
                      0.125434E+00 -0.119343E+01  0.000000E+00
                      0.146340E+00 -0.139233E+01  0.000000E+00
                      0.167246E+00 -0.159124E+01  0.000000E+00
                      0.188151E+00 -0.179014E+01  0.000000E+00
                      0.309017E+00 -0.951057E+00  0.000000E+00
                      0.370820E+00 -0.114127E+01  0.000000E+00
                      0.432624E+00 -0.133148E+01  0.000000E+00
                      0.494427E+00 -0.152169E+01  0.000000E+00
                      0.556231E+00 -0.171190E+01  0.000000E+00
                      0.500000E+00 -0.866025E+00  0.000000E+00
                      0.600000E+00 -0.103923E+01  0.000000E+00
                      0.700000E+00 -0.121244E+01  0.000000E+00
                      0.800000E+00 -0.138564E+01  0.000000E+00
                      0.900000E+00 -0.155885E+01  0.000000E+00
                      0.669131E+00 -0.743145E+00  0.000000E+00
                      0.802957E+00 -0.891774E+00  0.000000E+00
                      0.936783E+00 -0.104040E+01  0.000000E+00
                      0.107061E+01 -0.118903E+01  0.000000E+00
                      0.120444E+01 -0.133766E+01  0.000000E+00
                      0.809017E+00 -0.587785E+00  0.000000E+00
                      0.970820E+00 -0.705342E+00  0.000000E+00
                      0.113262E+01 -0.822899E+00  0.000000E+00
                      0.129443E+01 -0.940456E+00  0.000000E+00
                      0.145623E+01 -0.105801E+01  0.000000E+00
                      0.913545E+00 -0.406737E+00  0.000000E+00
                      0.109625E+01 -0.488084E+00  0.000000E+00
                      0.127896E+01 -0.569431E+00  0.000000E+00
                      0.146167E+01 -0.650779E+00  0.000000E+00
                      0.164438E+01 -0.732126E+00  0.000000E+00
                      0.978148E+00 -0.207912E+00  0.000000E+00
                      0.117378E+01 -0.249494E+00  0.000000E+00
                      0.136941E+01 -0.291076E+00  0.000000E+00
                      0.156504E+01 -0.332659E+00  0.000000E+00
                      0.176067E+01 -0.374241E+00  0.000000E+00
                      0.100000E+01 -0.244929E-15  0.500000E+00
                      0.120000E+01 -0.293915E-15  0.500000E+00
                      0.140000E+01 -0.342901E-15  0.500000E+00
[...]
            <PointData>
                <DataArray type="Float32" Name="DISP" NumberOfComponents="6" ComponentName0="UX" ComponentName1="UY" ComponentName2="UZ" ComponentName3="RX" ComponentName4="RY" ComponentName5="RZ" format="ascii">
                      0.000000E+00  0.000000E+00  0.000000E+00  0.000000E+00  0.000000E+00  0.000000E+00
                      0.000000E+00  0.000000E+00  0.000000E+00  0.000000E+00  0.000000E+00  0.000000E+00
                      0.000000E+00  0.000000E+00  0.000000E+00  0.000000E+00  0.000000E+00  0.000000E+00
                      0.000000E+00  0.000000E+00  0.000000E+00  0.000000E+00  0.000000E+00  0.000000E+00
                      0.000000E+00  0.000000E+00  0.000000E+00  0.000000E+00  0.000000E+00  0.000000E+00
                      0.000000E+00  0.000000E+00  0.000000E+00  0.000000E+00  0.000000E+00  0.000000E+00
                      0.000000E+00  0.000000E+00  0.000000E+00  0.000000E+00  0.000000E+00  0.000000E+00
                      0.000000E+00  0.000000E+00  0.000000E+00  0.000000E+00  0.000000E+00  0.000000E+00
                      0.000000E+00  0.000000E+00  0.000000E+00  0.000000E+00  0.000000E+00  0.000000E+00
                      0.000000E+00  0.000000E+00  0.000000E+00  0.000000E+00  0.000000E+00  0.000000E+00
                      0.000000E+00  0.000000E+00  0.000000E+00  0.000000E+00  0.000000E+00  0.000000E+00
                      0.000000E+00  0.000000E+00  0.000000E+00  0.000000E+00  0.000000E+00  0.000000E+00
                      0.000000E+00  0.000000E+00  0.000000E+00  0.000000E+00  0.000000E+00  0.000000E+00
                      0.000000E+00  0.000000E+00  0.000000E+00  0.000000E+00  0.000000E+00  0.000000E+00
                      0.000000E+00  0.000000E+00  0.000000E+00  0.000000E+00  0.000000E+00  0.000000E+00
                      0.000000E+00  0.000000E+00  0.000000E+00  0.000000E+00  0.000000E+00  0.000000E+00
                      0.000000E+00  0.000000E+00  0.000000E+00  0.000000E+00  0.000000E+00  0.000000E+00
                      0.000000E+00  0.000000E+00  0.000000E+00  0.000000E+00  0.000000E+00  0.000000E+00
                      0.000000E+00  0.000000E+00  0.000000E+00  0.000000E+00  0.000000E+00  0.000000E+00
                      0.000000E+00  0.000000E+00  0.000000E+00  0.000000E+00  0.000000E+00  0.000000E+00
                      0.000000E+00  0.000000E+00  0.000000E+00  0.000000E+00  0.000000E+00  0.000000E+00
                      0.000000E+00  0.000000E+00  0.000000E+00  0.000000E+00  0.000000E+00  0.000000E+00
                      0.000000E+00  0.000000E+00  0.000000E+00  0.000000E+00  0.000000E+00  0.000000E+00
                      0.000000E+00  0.000000E+00  0.000000E+00  0.000000E+00  0.000000E+00  0.000000E+00
                      0.000000E+00  0.000000E+00  0.000000E+00  0.000000E+00  0.000000E+00  0.000000E+00
                      0.000000E+00  0.000000E+00  0.000000E+00  0.000000E+00  0.000000E+00  0.000000E+00
                      0.000000E+00  0.000000E+00  0.000000E+00  0.000000E+00  0.000000E+00  0.000000E+00
                      0.000000E+00  0.000000E+00  0.000000E+00  0.000000E+00  0.000000E+00  0.000000E+00
                      0.000000E+00  0.000000E+00  0.000000E+00  0.000000E+00  0.000000E+00  0.000000E+00
                      0.000000E+00  0.000000E+00  0.000000E+00  0.000000E+00  0.000000E+00  0.000000E+00
                      0.000000E+00  0.000000E+00  0.000000E+00  0.000000E+00  0.000000E+00  0.000000E+00
                      0.000000E+00  0.000000E+00  0.000000E+00  0.000000E+00  0.000000E+00  0.000000E+00
                      0.000000E+00  0.000000E+00  0.000000E+00  0.000000E+00  0.000000E+00  0.000000E+00
                      0.000000E+00  0.000000E+00  0.000000E+00  0.000000E+00  0.000000E+00  0.000000E+00
                      0.000000E+00  0.000000E+00  0.000000E+00  0.000000E+00  0.000000E+00  0.000000E+00
                      0.000000E+00  0.000000E+00  0.000000E+00  0.000000E+00  0.000000E+00  0.000000E+00
                      0.000000E+00  0.000000E+00  0.000000E+00  0.000000E+00  0.000000E+00  0.000000E+00
                      0.000000E+00  0.000000E+00  0.000000E+00  0.000000E+00  0.000000E+00  0.000000E+00
                      0.000000E+00  0.000000E+00  0.000000E+00  0.000000E+00  0.000000E+00  0.000000E+00
                      0.000000E+00  0.000000E+00  0.000000E+00  0.000000E+00  0.000000E+00  0.000000E+00
                      0.000000E+00  0.000000E+00  0.000000E+00  0.000000E+00  0.000000E+00  0.000000E+00
                      0.000000E+00  0.000000E+00  0.000000E+00  0.000000E+00  0.000000E+00  0.000000E+00
                      0.000000E+00  0.000000E+00  0.000000E+00  0.000000E+00  0.000000E+00  0.000000E+00
                      0.000000E+00  0.000000E+00  0.000000E+00  0.000000E+00  0.000000E+00  0.000000E+00
                      0.000000E+00  0.000000E+00  0.000000E+00  0.000000E+00  0.000000E+00  0.000000E+00
                      0.000000E+00  0.000000E+00  0.000000E+00  0.000000E+00  0.000000E+00  0.000000E+00
                      0.000000E+00  0.000000E+00  0.000000E+00  0.000000E+00  0.000000E+00  0.000000E+00
                      0.000000E+00  0.000000E+00  0.000000E+00  0.000000E+00  0.000000E+00  0.000000E+00
                      0.000000E+00  0.000000E+00  0.000000E+00  0.000000E+00  0.000000E+00  0.000000E+00
                      0.000000E+00  0.000000E+00  0.000000E+00  0.000000E+00  0.000000E+00  0.000000E+00
                      0.000000E+00  0.000000E+00  0.000000E+00  0.000000E+00  0.000000E+00  0.000000E+00
                      0.000000E+00  0.000000E+00  0.000000E+00  0.000000E+00  0.000000E+00  0.000000E+00
                      0.000000E+00  0.000000E+00  0.000000E+00  0.000000E+00  0.000000E+00  0.000000E+00
                      0.000000E+00  0.000000E+00  0.000000E+00  0.000000E+00  0.000000E+00  0.000000E+00
                      0.000000E+00  0.000000E+00  0.000000E+00  0.000000E+00  0.000000E+00  0.000000E+00
                      0.000000E+00  0.000000E+00  0.000000E+00  0.000000E+00  0.000000E+00  0.000000E+00
                      0.000000E+00  0.000000E+00  0.000000E+00  0.000000E+00  0.000000E+00  0.000000E+00
                      0.000000E+00  0.000000E+00  0.000000E+00  0.000000E+00  0.000000E+00  0.000000E+00
                      0.000000E+00  0.000000E+00  0.000000E+00  0.000000E+00  0.000000E+00  0.000000E+00
                      0.000000E+00  0.000000E+00  0.000000E+00  0.000000E+00  0.000000E+00  0.000000E+00
                      0.000000E+00  0.000000E+00  0.000000E+00  0.000000E+00  0.000000E+00  0.000000E+00
                      0.000000E+00  0.000000E+00  0.000000E+00  0.000000E+00  0.000000E+00  0.000000E+00
                      0.000000E+00  0.000000E+00  0.000000E+00  0.000000E+00  0.000000E+00  0.000000E+00
                      0.000000E+00  0.000000E+00  0.000000E+00  0.000000E+00  0.000000E+00  0.000000E+00
                      0.000000E+00  0.000000E+00  0.000000E+00  0.000000E+00  0.000000E+00  0.000000E+00
                      0.000000E+00  0.000000E+00  0.000000E+00  0.000000E+00  0.000000E+00  0.000000E+00
                      0.000000E+00  0.000000E+00  0.000000E+00  0.000000E+00  0.000000E+00  0.000000E+00
                      0.000000E+00  0.000000E+00  0.000000E+00  0.000000E+00  0.000000E+00  0.000000E+00
                      0.000000E+00  0.000000E+00  0.000000E+00  0.000000E+00  0.000000E+00  0.000000E+00
                      0.000000E+00  0.000000E+00  0.000000E+00  0.000000E+00  0.000000E+00  0.000000E+00
                      0.000000E+00  0.000000E+00  0.000000E+00  0.000000E+00  0.000000E+00  0.000000E+00
                      0.000000E+00  0.000000E+00  0.000000E+00  0.000000E+00  0.000000E+00  0.000000E+00
                      0.000000E+00  0.000000E+00  0.000000E+00  0.000000E+00  0.000000E+00  0.000000E+00
                      0.000000E+00  0.000000E+00  0.000000E+00  0.000000E+00  0.000000E+00  0.000000E+00
                      0.000000E+00  0.000000E+00  0.000000E+00  0.000000E+00  0.000000E+00  0.000000E+00
                      0.000000E+00  0.000000E+00  0.000000E+00  0.000000E+00  0.000000E+00  0.000000E+00
                      0.000000E+00  0.000000E+00  0.000000E+00  0.000000E+00  0.000000E+00  0.000000E+00
                      0.000000E+00  0.000000E+00  0.000000E+00  0.000000E+00  0.000000E+00  0.000000E+00
                      0.000000E+00  0.000000E+00  0.000000E+00  0.000000E+00  0.000000E+00  0.000000E+00
                      0.000000E+00  0.000000E+00  0.000000E+00  0.000000E+00  0.000000E+00  0.000000E+00
                      0.000000E+00  0.000000E+00  0.000000E+00  0.000000E+00  0.000000E+00  0.000000E+00
                      0.000000E+00  0.000000E+00  0.000000E+00  0.000000E+00  0.000000E+00  0.000000E+00
                      0.000000E+00  0.000000E+00  0.000000E+00  0.000000E+00  0.000000E+00  0.000000E+00
                      0.000000E+00  0.000000E+00  0.000000E+00  0.000000E+00  0.000000E+00  0.000000E+00
                      0.000000E+00  0.000000E+00  0.000000E+00  0.000000E+00  0.000000E+00  0.000000E+00
                      0.000000E+00  0.000000E+00  0.000000E+00  0.000000E+00  0.000000E+00  0.000000E+00
                      0.000000E+00  0.000000E+00  0.000000E+00  0.000000E+00  0.000000E+00  0.000000E+00
                      0.000000E+00  0.000000E+00  0.000000E+00  0.000000E+00  0.000000E+00  0.000000E+00
                      0.000000E+00  0.000000E+00  0.000000E+00  0.000000E+00  0.000000E+00  0.000000E+00
                      0.000000E+00  0.000000E+00  0.000000E+00  0.000000E+00  0.000000E+00  0.000000E+00
                      0.000000E+00  0.000000E+00  0.000000E+00  0.000000E+00  0.000000E+00  0.000000E+00
                      0.000000E+00  0.000000E+00  0.000000E+00  0.000000E+00  0.000000E+00  0.000000E+00
                      0.000000E+00  0.000000E+00  0.000000E+00  0.000000E+00  0.000000E+00  0.000000E+00
                      0.000000E+00  0.000000E+00  0.000000E+00  0.000000E+00  0.000000E+00  0.000000E+00
                      0.000000E+00  0.000000E+00  0.000000E+00  0.000000E+00  0.000000E+00  0.000000E+00
                      0.000000E+00  0.000000E+00  0.000000E+00  0.000000E+00  0.000000E+00  0.000000E+00
                      0.000000E+00  0.000000E+00  0.000000E+00  0.000000E+00  0.000000E+00  0.000000E+00
                      0.000000E+00  0.000000E+00  0.000000E+00  0.000000E+00  0.000000E+00  0.000000E+00
                      0.000000E+00  0.000000E+00  0.000000E+00  0.000000E+00  0.000000E+00  0.000000E+00
                      0.000000E+00  0.000000E+00  0.000000E+00  0.000000E+00  0.000000E+00  0.000000E+00
                      0.000000E+00  0.000000E+00  0.000000E+00  0.000000E+00  0.000000E+00  0.000000E+00
                      0.000000E+00  0.000000E+00  0.000000E+00  0.000000E+00  0.000000E+00  0.000000E+00
                      0.000000E+00  0.000000E+00  0.000000E+00  0.000000E+00  0.000000E+00  0.000000E+00
                      0.000000E+00  0.000000E+00  0.000000E+00  0.000000E+00  0.000000E+00  0.000000E+00
                      0.000000E+00  0.000000E+00  0.000000E+00  0.000000E+00  0.000000E+00  0.000000E+00
                      0.000000E+00  0.000000E+00  0.000000E+00  0.000000E+00  0.000000E+00  0.000000E+00
                      0.000000E+00  0.000000E+00  0.000000E+00  0.000000E+00  0.000000E+00  0.000000E+00
                      0.000000E+00  0.000000E+00  0.000000E+00  0.000000E+00  0.000000E+00  0.000000E+00
                      0.000000E+00  0.000000E+00  0.000000E+00  0.000000E+00  0.000000E+00  0.000000E+00
                      0.000000E+00  0.000000E+00  0.000000E+00  0.000000E+00  0.000000E+00  0.000000E+00
                      0.000000E+00  0.000000E+00  0.000000E+00  0.000000E+00  0.000000E+00  0.000000E+00
                      0.000000E+00  0.000000E+00  0.000000E+00  0.000000E+00  0.000000E+00  0.000000E+00
                      0.000000E+00  0.000000E+00  0.000000E+00  0.000000E+00  0.000000E+00  0.000000E+00
                      0.000000E+00  0.000000E+00  0.000000E+00  0.000000E+00  0.000000E+00  0.000000E+00
                      0.000000E+00  0.000000E+00  0.000000E+00  0.000000E+00  0.000000E+00  0.000000E+00
                      0.000000E+00  0.000000E+00  0.000000E+00  0.000000E+00  0.000000E+00  0.000000E+00
                      0.000000E+00  0.000000E+00  0.000000E+00  0.000000E+00  0.000000E+00  0.000000E+00
                      0.000000E+00  0.000000E+00  0.000000E+00  0.000000E+00  0.000000E+00  0.000000E+00
                      0.000000E+00  0.000000E+00  0.000000E+00  0.000000E+00  0.000000E+00  0.000000E+00
                      0.000000E+00  0.000000E+00  0.000000E+00  0.000000E+00  0.000000E+00  0.000000E+00
                      0.000000E+00  0.000000E+00  0.000000E+00  0.000000E+00  0.000000E+00  0.000000E+00
                      0.000000E+00  0.000000E+00  0.000000E+00  0.000000E+00  0.000000E+00  0.000000E+00
                      0.000000E+00  0.000000E+00  0.000000E+00  0.000000E+00  0.000000E+00  0.000000E+00
                      0.000000E+00  0.000000E+00  0.000000E+00  0.000000E+00  0.000000E+00  0.000000E+00
                      0.000000E+00  0.000000E+00  0.000000E+00  0.000000E+00  0.000000E+00  0.000000E+00
                      0.000000E+00  0.000000E+00  0.000000E+00  0.000000E+00  0.000000E+00  0.000000E+00
                      0.000000E+00  0.000000E+00  0.000000E+00  0.000000E+00  0.000000E+00  0.000000E+00
                      0.000000E+00  0.000000E+00  0.000000E+00  0.000000E+00  0.000000E+00  0.000000E+00
                      0.000000E+00  0.000000E+00  0.000000E+00  0.000000E+00  0.000000E+00  0.000000E+00
                      0.000000E+00  0.000000E+00  0.000000E+00  0.000000E+00  0.000000E+00  0.000000E+00
                      0.000000E+00  0.000000E+00  0.000000E+00  0.000000E+00  0.000000E+00  0.000000E+00
                      0.000000E+00  0.000000E+00  0.000000E+00  0.000000E+00  0.000000E+00  0.000000E+00
                      0.000000E+00  0.000000E+00  0.000000E+00  0.000000E+00  0.000000E+00  0.000000E+00
                      0.000000E+00  0.000000E+00  0.000000E+00  0.000000E+00  0.000000E+00  0.000000E+00
                      0.000000E+00  0.000000E+00  0.000000E+00  0.000000E+00  0.000000E+00  0.000000E+00
                      0.000000E+00  0.000000E+00  0.000000E+00  0.000000E+00  0.000000E+00  0.000000E+00
                      0.000000E+00  0.000000E+00  0.000000E+00  0.000000E+00  0.000000E+00  0.000000E+00
                      0.000000E+00  0.000000E+00  0.000000E+00  0.000000E+00  0.000000E+00  0.000000E+00
                      0.000000E+00  0.000000E+00  0.000000E+00  0.000000E+00  0.000000E+00  0.000000E+00
                      0.000000E+00  0.000000E+00  0.000000E+00  0.000000E+00  0.000000E+00  0.000000E+00
                      0.000000E+00  0.000000E+00  0.000000E+00  0.000000E+00  0.000000E+00  0.000000E+00
                      0.000000E+00  0.000000E+00  0.000000E+00  0.000000E+00  0.000000E+00  0.000000E+00
                      0.000000E+00  0.000000E+00  0.000000E+00  0.000000E+00  0.000000E+00  0.000000E+00
                      0.000000E+00  0.000000E+00  0.000000E+00  0.000000E+00  0.000000E+00  0.000000E+00
                      0.000000E+00  0.000000E+00  0.000000E+00  0.000000E+00  0.000000E+00  0.000000E+00
                      0.000000E+00  0.000000E+00  0.000000E+00  0.000000E+00  0.000000E+00  0.000000E+00
                      0.000000E+00  0.000000E+00  0.000000E+00  0.000000E+00  0.000000E+00  0.000000E+00
                      0.000000E+00  0.000000E+00  0.000000E+00  0.000000E+00  0.000000E+00  0.000000E+00
                      0.000000E+00  0.000000E+00  0.000000E+00  0.000000E+00  0.000000E+00  0.000000E+00
                      0.000000E+00  0.000000E+00  0.000000E+00  0.000000E+00  0.000000E+00  0.000000E+00
                      0.310910E-03  0.893090E-17  0.229647E-01  0.000000E+00  0.000000E+00  0.000000E+00
                     -0.444126E-02  0.102563E-16  0.244004E-01  0.000000E+00  0.000000E+00  0.000000E+00
                     -0.861283E-02  0.113701E-16  0.255447E-01  0.000000E+00  0.000000E+00  0.000000E+00
                     -0.126624E-01  0.211239E-16  0.268339E-01  0.000000E+00  0.000000E+00  0.000000E+00
                     -0.170546E-01 -0.109676E-17  0.289199E-01  0.000000E+00  0.000000E+00  0.000000E+00
                      0.304116E-03  0.646418E-04  0.229647E-01  0.000000E+00  0.000000E+00  0.000000E+00
                     -0.434420E-02 -0.923389E-03  0.244004E-01  0.000000E+00  0.000000E+00  0.000000E+00
                     -0.842462E-02 -0.179071E-02  0.255447E-01  0.000000E+00  0.000000E+00  0.000000E+00
                     -0.123857E-01 -0.263267E-02  0.268339E-01  0.000000E+00  0.000000E+00  0.000000E+00
                     -0.166819E-01 -0.354585E-02  0.289199E-01  0.000000E+00  0.000000E+00  0.000000E+00
                      0.284030E-03  0.126458E-03  0.229647E-01  0.000000E+00  0.000000E+00  0.000000E+00
                     -0.405729E-02 -0.180642E-02  0.244004E-01  0.000000E+00  0.000000E+00  0.000000E+00
                     -0.786821E-02 -0.350315E-02  0.255447E-01  0.000000E+00  0.000000E+00  0.000000E+00
                     -0.115677E-01 -0.515027E-02  0.268339E-01  0.000000E+00  0.000000E+00  0.000000E+00
                     -0.155802E-01 -0.693674E-02  0.289199E-01  0.000000E+00  0.000000E+00  0.000000E+00
                      0.251531E-03  0.182748E-03  0.229647E-01  0.000000E+00  0.000000E+00  0.000000E+00
                     -0.359305E-02 -0.261050E-02  0.244004E-01  0.000000E+00  0.000000E+00  0.000000E+00
                     -0.696792E-02 -0.506249E-02  0.255447E-01  0.000000E+00  0.000000E+00  0.000000E+00
                     -0.102441E-01 -0.744279E-02  0.268339E-01  0.000000E+00  0.000000E+00  0.000000E+00
                     -0.137975E-01 -0.100245E-01  0.289199E-01  0.000000E+00  0.000000E+00  0.000000E+00
                      0.208039E-03  0.231051E-03  0.229647E-01  0.000000E+00  0.000000E+00  0.000000E+00
                     -0.297178E-02 -0.330050E-02  0.244004E-01  0.000000E+00  0.000000E+00  0.000000E+00
                     -0.576311E-02 -0.640058E-02  0.255447E-01  0.000000E+00  0.000000E+00  0.000000E+00
                     -0.847282E-02 -0.941002E-02  0.268339E-01  0.000000E+00  0.000000E+00  0.000000E+00
                     -0.114118E-01 -0.126740E-01  0.289199E-01  0.000000E+00  0.000000E+00  0.000000E+00
                      0.155455E-03  0.269256E-03  0.229647E-01  0.000000E+00  0.000000E+00  0.000000E+00
                     -0.222063E-02 -0.384624E-02  0.244004E-01  0.000000E+00  0.000000E+00  0.000000E+00
                     -0.430641E-02 -0.745893E-02  0.255447E-01  0.000000E+00  0.000000E+00  0.000000E+00
                     -0.633121E-02 -0.109660E-01  0.268339E-01  0.000000E+00  0.000000E+00  0.000000E+00
                     -0.852731E-02 -0.147697E-01  0.289199E-01  0.000000E+00  0.000000E+00  0.000000E+00
                      0.960764E-04  0.295693E-03  0.229647E-01  0.000000E+00  0.000000E+00  0.000000E+00
                     -0.137242E-02 -0.422388E-02  0.244004E-01  0.000000E+00  0.000000E+00  0.000000E+00
                     -0.266151E-02 -0.819129E-02  0.255447E-01  0.000000E+00  0.000000E+00  0.000000E+00
                     -0.391291E-02 -0.120427E-01  0.268339E-01  0.000000E+00  0.000000E+00  0.000000E+00
                     -0.527017E-02 -0.162199E-01  0.289199E-01  0.000000E+00  0.000000E+00  0.000000E+00
                      0.324989E-04  0.309207E-03  0.229647E-01  0.000000E+00  0.000000E+00  0.000000E+00
                     -0.464238E-03 -0.441693E-02  0.244004E-01  0.000000E+00  0.000000E+00  0.000000E+00
                     -0.900286E-03 -0.856565E-02  0.255447E-01  0.000000E+00  0.000000E+00  0.000000E+00