<?xml version="1.0"?>
<!-- PROGRAMME=CASTEM/SORVTK   UTILISATEUR=cast2clo   DATE=12/02/2022   TITRE=disp -->
<VTKFile type="UnstructuredGrid" version="0.1">
    <UnstructuredGrid>
        <Piece NumberOfPoints="1218" NumberOfCells="1008">
            <Points>
                <DataArray type="Float32" NumberOfComponents="3" format="ascii">
                      0.100000E+01 -0.244929E-15  0.000000E+00
                      0.110000E+01 -0.269422E-15  0.000000E+00
                      0.120000E+01 -0.293915E-15  0.000000E+00
                      0.130000E+01 -0.318408E-15  0.000000E+00
                      0.140000E+01 -0.342901E-15  0.000000E+00
                      0.150000E+01 -0.367394E-15  0.000000E+00
                      0.160000E+01 -0.391887E-15  0.000000E+00
                      0.170000E+01 -0.416380E-15  0.000000E+00
                      0.180000E+01 -0.440873E-15  0.000000E+00
                      0.190000E+01 -0.465366E-15  0.000000E+00
                      0.809017E+00  0.587785E+00  0.000000E+00
                      0.889919E+00  0.646564E+00  0.000000E+00
                      0.970820E+00  0.705342E+00  0.000000E+00
                      0.105172E+01  0.764121E+00  0.000000E+00
                      0.113262E+01  0.822899E+00  0.000000E+00
                      0.121353E+01  0.881678E+00  0.000000E+00
                      0.129443E+01  0.940456E+00  0.000000E+00
                      0.137533E+01  0.999235E+00  0.000000E+00
                      0.145623E+01  0.105801E+01  0.000000E+00
                      0.153713E+01  0.111679E+01  0.000000E+00
                      0.309017E+00  0.951057E+00  0.000000E+00
                      0.339919E+00  0.104616E+01  0.000000E+00
                      0.370820E+00  0.114127E+01  0.000000E+00
                      0.401722E+00  0.123637E+01  0.000000E+00
                      0.432624E+00  0.133148E+01  0.000000E+00
                      0.463525E+00  0.142658E+01  0.000000E+00
                      0.494427E+00  0.152169E+01  0.000000E+00
                      0.525329E+00  0.161680E+01  0.000000E+00
                      0.556231E+00  0.171190E+01  0.000000E+00
                      0.587132E+00  0.180701E+01  0.000000E+00
                     -0.309017E+00  0.951057E+00  0.000000E+00
                     -0.339919E+00  0.104616E+01  0.000000E+00
                     -0.370820E+00  0.114127E+01  0.000000E+00
                     -0.401722E+00  0.123637E+01  0.000000E+00
                     -0.432624E+00  0.133148E+01  0.000000E+00
                     -0.463525E+00  0.142658E+01  0.000000E+00
                     -0.494427E+00  0.152169E+01  0.000000E+00
                     -0.525329E+00  0.161680E+01  0.000000E+00
                     -0.556231E+00  0.171190E+01  0.000000E+00
                     -0.587132E+00  0.180701E+01  0.000000E+00
                     -0.809017E+00  0.587785E+00  0.000000E+00
                     -0.889919E+00  0.646564E+00  0.000000E+00
                     -0.970820E+00  0.705342E+00  0.000000E+00
                     -0.105172E+01  0.764121E+00  0.000000E+00
                     -0.113262E+01  0.822899E+00  0.000000E+00
                     -0.121353E+01  0.881678E+00  0.000000E+00
                     -0.129443E+01  0.940456E+00  0.000000E+00
                     -0.137533E+01  0.999235E+00  0.000000E+00
                     -0.145623E+01  0.105801E+01  0.000000E+00
                     -0.153713E+01  0.111679E+01  0.000000E+00
                     -0.100000E+01  0.122465E-15  0.000000E+00
                     -0.110000E+01  0.134711E-15  0.000000E+00
                     -0.120000E+01  0.146958E-15  0.000000E+00
                     -0.130000E+01  0.159204E-15  0.000000E+00
                     -0.140000E+01  0.171451E-15  0.000000E+00
                     -0.150000E+01  0.183697E-15  0.000000E+00
                     -0.160000E+01  0.195943E-15  0.000000E+00
                     -0.170000E+01  0.208190E-15  0.000000E+00
                     -0.180000E+01  0.220436E-15  0.000000E+00
                     -0.190000E+01  0.232683E-15  0.000000E+00
                     -0.809017E+00 -0.587785E+00  0.000000E+00
                     -0.889919E+00 -0.646564E+00  0.000000E+00
                     -0.970820E+00 -0.705342E+00  0.000000E+00
                     -0.105172E+01 -0.764121E+00  0.000000E+00
                     -0.113262E+01 -0.822899E+00  0.000000E+00
                     -0.121353E+01 -0.881678E+00  0.000000E+00
                     -0.129443E+01 -0.940456E+00  0.000000E+00
                     -0.137533E+01 -0.999235E+00  0.000000E+00
                     -0.145623E+01 -0.105801E+01  0.000000E+00
                     -0.153713E+01 -0.111679E+01  0.000000E+00
                     -0.309017E+00 -0.951057E+00  0.000000E+00
                     -0.339919E+00 -0.104616E+01  0.000000E+00
                     -0.370820E+00 -0.114127E+01  0.000000E+00
                     -0.401722E+00 -0.123637E+01  0.000000E+00
                     -0.432624E+00 -0.133148E+01  0.000000E+00
                     -0.463525E+00 -0.142658E+01  0.000000E+00
                     -0.494427E+00 -0.152169E+01  0.000000E+00
                     -0.525329E+00 -0.161680E+01  0.000000E+00
                     -0.556231E+00 -0.171190E+01  0.000000E+00
                     -0.587132E+00 -0.180701E+01  0.000000E+00
                      0.309017E+00 -0.951057E+00  0.000000E+00
                      0.339919E+00 -0.104616E+01  0.000000E+00
                      0.370820E+00 -0.114127E+01  0.000000E+00
                      0.401722E+00 -0.123637E+01  0.000000E+00
                      0.432624E+00 -0.133148E+01  0.000000E+00
                      0.463525E+00 -0.142658E+01  0.000000E+00
                      0.494427E+00 -0.152169E+01  0.000000E+00
                      0.525329E+00 -0.161680E+01  0.000000E+00
                      0.556231E+00 -0.171190E+01  0.000000E+00
                      0.587132E+00 -0.180701E+01  0.000000E+00
                      0.809017E+00 -0.587785E+00  0.000000E+00
                      0.889919E+00 -0.646564E+00  0.000000E+00
                      0.970820E+00 -0.705342E+00  0.000000E+00
                      0.105172E+01 -0.764121E+00  0.000000E+00
                      0.113262E+01 -0.822899E+00  0.000000E+00
                      0.121353E+01 -0.881678E+00  0.000000E+00
                      0.129443E+01 -0.940456E+00  0.000000E+00
                      0.137533E+01 -0.999235E+00  0.000000E+00
                      0.145623E+01 -0.105801E+01  0.000000E+00
                      0.153713E+01 -0.111679E+01  0.000000E+00
                      0.100000E+01 -0.244929E-15  0.500000E+00
                      0.110000E+01 -0.269422E-15  0.500000E+00
                      0.120000E+01 -0.293915E-15  0.500000E+00
                      0.130000E+01 -0.318408E-15  0.500000E+00
                      0.140000E+01 -0.342901E-15  0.500000E+00
                      0.150000E+01 -0.367394E-15  0.500000E+00
                      0.160000E+01 -0.391887E-15  0.500000E+00
                      0.170000E+01 -0.416380E-15  0.500000E+00
                      0.180000E+01 -0.440873E-15  0.500000E+00
                      0.190000E+01 -0.465366E-15  0.500000E+00
                      0.809017E+00  0.587785E+00  0.500000E+00
                      0.889919E+00  0.646564E+00  0.500000E+00
                      0.970820E+00  0.705342E+00  0.500000E+00
                      0.105172E+01  0.764121E+00  0.500000E+00
                      0.113262E+01  0.822899E+00  0.500000E+00
                      0.121353E+01  0.881678E+00  0.500000E+00
                      0.129443E+01  0.940456E+00  0.500000E+00
                      0.137533E+01  0.999235E+00  0.500000E+00
                      0.145623E+01  0.105801E+01  0.500000E+00
                      0.153713E+01  0.111679E+01  0.500000E+00
                      0.309017E+00  0.951057E+00  0.500000E+00
                      0.339919E+00  0.104616E+01  0.500000E+00
                      0.370820E+00  0.114127E+01  0.500000E+00
                      0.401722E+00  0.123637E+01  0.500000E+00
                      0.432624E+00  0.133148E+01  0.500000E+00
                      0.463525E+00  0.142658E+01  0.500000E+00
                      0.494427E+00  0.152169E+01  0.500000E+00
                      0.525329E+00  0.161680E+01  0.500000E+00
                      0.556231E+00  0.171190E+01  0.500000E+00
                      0.587132E+00  0.180701E+01  0.500000E+00
                     -0.309017E+00  0.951057E+00  0.500000E+00
                     -0.339919E+00  0.104616E+01  0.500000E+00
                     -0.370820E+00  0.114127E+01  0.500000E+00
                     -0.401722E+00  0.123637E+01  0.500000E+00
                     -0.432624E+00  0.133148E+01  0.500000E+00
                     -0.463525E+00  0.142658E+01  0.500000E+00
                     -0.494427E+00  0.152169E+01  0.500000E+00
                     -0.525329E+00  0.161680E+01  0.500000E+00
                     -0.556231E+00  0.171190E+01  0.500000E+00
                     -0.587132E+00  0.180701E+01  0.500000E+00
                     -0.809017E+00  0.587785E+00  0.500000E+00
                     -0.889919E+00  0.646564E+00  0.500000E+00
                     -0.970820E+00  0.705342E+00  0.500000E+00
                     -0.105172E+01  0.764121E+00  0.500000E+00
                     -0.113262E+01  0.822899E+00  0.500000E+00
                     -0.121353E+01  0.881678E+00  0.500000E+00
                     -0.129443E+01  0.940456E+00  0.500000E+00
                     -0.137533E+01  0.999235E+00  0.500000E+00
                     -0.145623E+01  0.105801E+01  0.500000E+00
                     -0.153713E+01  0.111679E+01  0.500000E+00
                     -0.100000E+01  0.122465E-15  0.500000E+00
                     -0.110000E+01  0.134711E-15  0.500000E+00
                     -0.120000E+01  0.146958E-15  0.500000E+00
[...]
            <PointData>
                <DataArray type="Float32" Name="DISP" NumberOfComponents="6" ComponentName0="UX" ComponentName1="UY" ComponentName2="UZ" ComponentName3="RX" ComponentName4="RY" ComponentName5="RZ" format="ascii">
                      0.000000E+00  0.000000E+00  0.000000E+00  0.000000E+00  0.000000E+00  0.000000E+00
                      0.000000E+00  0.000000E+00  0.000000E+00  0.000000E+00  0.000000E+00  0.000000E+00
                      0.000000E+00  0.000000E+00  0.000000E+00  0.000000E+00  0.000000E+00  0.000000E+00
                      0.000000E+00  0.000000E+00  0.000000E+00  0.000000E+00  0.000000E+00  0.000000E+00
                      0.000000E+00  0.000000E+00  0.000000E+00  0.000000E+00  0.000000E+00  0.000000E+00
                      0.000000E+00  0.000000E+00  0.000000E+00  0.000000E+00  0.000000E+00  0.000000E+00
                      0.000000E+00  0.000000E+00  0.000000E+00  0.000000E+00  0.000000E+00  0.000000E+00
                      0.000000E+00  0.000000E+00  0.000000E+00  0.000000E+00  0.000000E+00  0.000000E+00
                      0.000000E+00  0.000000E+00  0.000000E+00  0.000000E+00  0.000000E+00  0.000000E+00
                      0.000000E+00  0.000000E+00  0.000000E+00  0.000000E+00  0.000000E+00  0.000000E+00
                      0.000000E+00  0.000000E+00  0.000000E+00  0.000000E+00  0.000000E+00  0.000000E+00
                      0.000000E+00  0.000000E+00  0.000000E+00  0.000000E+00  0.000000E+00  0.000000E+00
                      0.000000E+00  0.000000E+00  0.000000E+00  0.000000E+00  0.000000E+00  0.000000E+00
                      0.000000E+00  0.000000E+00  0.000000E+00  0.000000E+00  0.000000E+00  0.000000E+00
                      0.000000E+00  0.000000E+00  0.000000E+00  0.000000E+00  0.000000E+00  0.000000E+00
                      0.000000E+00  0.000000E+00  0.000000E+00  0.000000E+00  0.000000E+00  0.000000E+00
                      0.000000E+00  0.000000E+00  0.000000E+00  0.000000E+00  0.000000E+00  0.000000E+00
                      0.000000E+00  0.000000E+00  0.000000E+00  0.000000E+00  0.000000E+00  0.000000E+00
                      0.000000E+00  0.000000E+00  0.000000E+00  0.000000E+00  0.000000E+00  0.000000E+00
                      0.000000E+00  0.000000E+00  0.000000E+00  0.000000E+00  0.000000E+00  0.000000E+00
                      0.000000E+00  0.000000E+00  0.000000E+00  0.000000E+00  0.000000E+00  0.000000E+00
                      0.000000E+00  0.000000E+00  0.000000E+00  0.000000E+00  0.000000E+00  0.000000E+00
                      0.000000E+00  0.000000E+00  0.000000E+00  0.000000E+00  0.000000E+00  0.000000E+00
                      0.000000E+00  0.000000E+00  0.000000E+00  0.000000E+00  0.000000E+00  0.000000E+00
                      0.000000E+00  0.000000E+00  0.000000E+00  0.000000E+00  0.000000E+00  0.000000E+00
                      0.000000E+00  0.000000E+00  0.000000E+00  0.000000E+00  0.000000E+00  0.000000E+00
                      0.000000E+00  0.000000E+00  0.000000E+00  0.000000E+00  0.000000E+00  0.000000E+00
                      0.000000E+00  0.000000E+00  0.000000E+00  0.000000E+00  0.000000E+00  0.000000E+00
                      0.000000E+00  0.000000E+00  0.000000E+00  0.000000E+00  0.000000E+00  0.000000E+00
                      0.000000E+00  0.000000E+00  0.000000E+00  0.000000E+00  0.000000E+00  0.000000E+00
                      0.000000E+00  0.000000E+00  0.000000E+00  0.000000E+00  0.000000E+00  0.000000E+00
                      0.000000E+00  0.000000E+00  0.000000E+00  0.000000E+00  0.000000E+00  0.000000E+00
                      0.000000E+00  0.000000E+00  0.000000E+00  0.000000E+00  0.000000E+00  0.000000E+00
                      0.000000E+00  0.000000E+00  0.000000E+00  0.000000E+00  0.000000E+00  0.000000E+00
                      0.000000E+00  0.000000E+00  0.000000E+00  0.000000E+00  0.000000E+00  0.000000E+00
                      0.000000E+00  0.000000E+00  0.000000E+00  0.000000E+00  0.000000E+00  0.000000E+00
                      0.000000E+00  0.000000E+00  0.000000E+00  0.000000E+00  0.000000E+00  0.000000E+00
                      0.000000E+00  0.000000E+00  0.000000E+00  0.000000E+00  0.000000E+00  0.000000E+00
                      0.000000E+00  0.000000E+00  0.000000E+00  0.000000E+00  0.000000E+00  0.000000E+00
                      0.000000E+00  0.000000E+00  0.000000E+00  0.000000E+00  0.000000E+00  0.000000E+00
                      0.000000E+00  0.000000E+00  0.000000E+00  0.000000E+00  0.000000E+00  0.000000E+00
                      0.000000E+00  0.000000E+00  0.000000E+00  0.000000E+00  0.000000E+00  0.000000E+00
                      0.000000E+00  0.000000E+00  0.000000E+00  0.000000E+00  0.000000E+00  0.000000E+00
                      0.000000E+00  0.000000E+00  0.000000E+00  0.000000E+00  0.000000E+00  0.000000E+00
                      0.000000E+00  0.000000E+00  0.000000E+00  0.000000E+00  0.000000E+00  0.000000E+00
                      0.000000E+00  0.000000E+00  0.000000E+00  0.000000E+00  0.000000E+00  0.000000E+00
                      0.000000E+00  0.000000E+00  0.000000E+00  0.000000E+00  0.000000E+00  0.000000E+00
                      0.000000E+00  0.000000E+00  0.000000E+00  0.000000E+00  0.000000E+00  0.000000E+00
                      0.000000E+00  0.000000E+00  0.000000E+00  0.000000E+00  0.000000E+00  0.000000E+00
                      0.000000E+00  0.000000E+00  0.000000E+00  0.000000E+00  0.000000E+00  0.000000E+00
                      0.000000E+00  0.000000E+00  0.000000E+00  0.000000E+00  0.000000E+00  0.000000E+00
                      0.000000E+00  0.000000E+00  0.000000E+00  0.000000E+00  0.000000E+00  0.000000E+00
                      0.000000E+00  0.000000E+00  0.000000E+00  0.000000E+00  0.000000E+00  0.000000E+00
                      0.000000E+00  0.000000E+00  0.000000E+00  0.000000E+00  0.000000E+00  0.000000E+00
                      0.000000E+00  0.000000E+00  0.000000E+00  0.000000E+00  0.000000E+00  0.000000E+00
                      0.000000E+00  0.000000E+00  0.000000E+00  0.000000E+00  0.000000E+00  0.000000E+00
                      0.000000E+00  0.000000E+00  0.000000E+00  0.000000E+00  0.000000E+00  0.000000E+00
                      0.000000E+00  0.000000E+00  0.000000E+00  0.000000E+00  0.000000E+00  0.000000E+00
                      0.000000E+00  0.000000E+00  0.000000E+00  0.000000E+00  0.000000E+00  0.000000E+00
                      0.000000E+00  0.000000E+00  0.000000E+00  0.000000E+00  0.000000E+00  0.000000E+00
                      0.000000E+00  0.000000E+00  0.000000E+00  0.000000E+00  0.000000E+00  0.000000E+00
                      0.000000E+00  0.000000E+00  0.000000E+00  0.000000E+00  0.000000E+00  0.000000E+00
                      0.000000E+00  0.000000E+00  0.000000E+00  0.000000E+00  0.000000E+00  0.000000E+00
                      0.000000E+00  0.000000E+00  0.000000E+00  0.000000E+00  0.000000E+00  0.000000E+00
                      0.000000E+00  0.000000E+00  0.000000E+00  0.000000E+00  0.000000E+00  0.000000E+00
                      0.000000E+00  0.000000E+00  0.000000E+00  0.000000E+00  0.000000E+00  0.000000E+00
                      0.000000E+00  0.000000E+00  0.000000E+00  0.000000E+00  0.000000E+00  0.000000E+00
                      0.000000E+00  0.000000E+00  0.000000E+00  0.000000E+00  0.000000E+00  0.000000E+00
                      0.000000E+00  0.000000E+00  0.000000E+00  0.000000E+00  0.000000E+00  0.000000E+00
                      0.000000E+00  0.000000E+00  0.000000E+00  0.000000E+00  0.000000E+00  0.000000E+00
                      0.000000E+00  0.000000E+00  0.000000E+00  0.000000E+00  0.000000E+00  0.000000E+00
                      0.000000E+00  0.000000E+00  0.000000E+00  0.000000E+00  0.000000E+00  0.000000E+00
                      0.000000E+00  0.000000E+00  0.000000E+00  0.000000E+00  0.000000E+00  0.000000E+00
                      0.000000E+00  0.000000E+00  0.000000E+00  0.000000E+00  0.000000E+00  0.000000E+00
                      0.000000E+00  0.000000E+00  0.000000E+00  0.000000E+00  0.000000E+00  0.000000E+00
                      0.000000E+00  0.000000E+00  0.000000E+00  0.000000E+00  0.000000E+00  0.000000E+00
                      0.000000E+00  0.000000E+00  0.000000E+00  0.000000E+00  0.000000E+00  0.000000E+00
                      0.000000E+00  0.000000E+00  0.000000E+00  0.000000E+00  0.000000E+00  0.000000E+00
                      0.000000E+00  0.000000E+00  0.000000E+00  0.000000E+00  0.000000E+00  0.000000E+00
                      0.000000E+00  0.000000E+00  0.000000E+00  0.000000E+00  0.000000E+00  0.000000E+00
                      0.000000E+00  0.000000E+00  0.000000E+00  0.000000E+00  0.000000E+00  0.000000E+00
                      0.000000E+00  0.000000E+00  0.000000E+00  0.000000E+00  0.000000E+00  0.000000E+00
                      0.000000E+00  0.000000E+00  0.000000E+00  0.000000E+00  0.000000E+00  0.000000E+00
                      0.000000E+00  0.000000E+00  0.000000E+00  0.000000E+00  0.000000E+00  0.000000E+00
                      0.000000E+00  0.000000E+00  0.000000E+00  0.000000E+00  0.000000E+00  0.000000E+00
                      0.000000E+00  0.000000E+00  0.000000E+00  0.000000E+00  0.000000E+00  0.000000E+00
                      0.000000E+00  0.000000E+00  0.000000E+00  0.000000E+00  0.000000E+00  0.000000E+00
                      0.000000E+00  0.000000E+00  0.000000E+00  0.000000E+00  0.000000E+00  0.000000E+00
                      0.000000E+00  0.000000E+00  0.000000E+00  0.000000E+00  0.000000E+00  0.000000E+00
                      0.000000E+00  0.000000E+00  0.000000E+00  0.000000E+00  0.000000E+00  0.000000E+00
                      0.000000E+00  0.000000E+00  0.000000E+00  0.000000E+00  0.000000E+00  0.000000E+00
                      0.000000E+00  0.000000E+00  0.000000E+00  0.000000E+00  0.000000E+00  0.000000E+00
                      0.000000E+00  0.000000E+00  0.000000E+00  0.000000E+00  0.000000E+00  0.000000E+00
                      0.000000E+00  0.000000E+00  0.000000E+00  0.000000E+00  0.000000E+00  0.000000E+00
                      0.000000E+00  0.000000E+00  0.000000E+00  0.000000E+00  0.000000E+00  0.000000E+00
                      0.000000E+00  0.000000E+00  0.000000E+00  0.000000E+00  0.000000E+00  0.000000E+00
                      0.000000E+00  0.000000E+00  0.000000E+00  0.000000E+00  0.000000E+00  0.000000E+00
                      0.000000E+00  0.000000E+00  0.000000E+00  0.000000E+00  0.000000E+00  0.000000E+00
                      0.000000E+00  0.000000E+00  0.000000E+00  0.000000E+00  0.000000E+00  0.000000E+00
                      0.000000E+00  0.000000E+00  0.000000E+00  0.000000E+00  0.000000E+00  0.000000E+00
                      0.000000E+00  0.000000E+00  0.000000E+00  0.000000E+00  0.000000E+00  0.000000E+00
                      0.000000E+00  0.000000E+00  0.000000E+00  0.000000E+00  0.000000E+00  0.000000E+00
                      0.000000E+00  0.000000E+00  0.000000E+00  0.000000E+00  0.000000E+00  0.000000E+00
                      0.000000E+00  0.000000E+00  0.000000E+00  0.000000E+00  0.000000E+00  0.000000E+00
                      0.000000E+00  0.000000E+00  0.000000E+00  0.000000E+00  0.000000E+00  0.000000E+00
                      0.000000E+00  0.000000E+00  0.000000E+00  0.000000E+00  0.000000E+00  0.000000E+00
                      0.000000E+00  0.000000E+00  0.000000E+00  0.000000E+00  0.000000E+00  0.000000E+00
                      0.000000E+00  0.000000E+00  0.000000E+00  0.000000E+00  0.000000E+00  0.000000E+00
                      0.000000E+00  0.000000E+00  0.000000E+00  0.000000E+00  0.000000E+00  0.000000E+00
                      0.000000E+00  0.000000E+00  0.000000E+00  0.000000E+00  0.000000E+00  0.000000E+00
                      0.000000E+00  0.000000E+00  0.000000E+00  0.000000E+00  0.000000E+00  0.000000E+00
                      0.000000E+00  0.000000E+00  0.000000E+00  0.000000E+00  0.000000E+00  0.000000E+00
                      0.000000E+00  0.000000E+00  0.000000E+00  0.000000E+00  0.000000E+00  0.000000E+00
                      0.000000E+00  0.000000E+00  0.000000E+00  0.000000E+00  0.000000E+00  0.000000E+00
                      0.000000E+00  0.000000E+00  0.000000E+00  0.000000E+00  0.000000E+00  0.000000E+00
                      0.000000E+00  0.000000E+00  0.000000E+00  0.000000E+00  0.000000E+00  0.000000E+00
                      0.000000E+00  0.000000E+00  0.000000E+00  0.000000E+00  0.000000E+00  0.000000E+00
                      0.000000E+00  0.000000E+00  0.000000E+00  0.000000E+00  0.000000E+00  0.000000E+00
                      0.000000E+00  0.000000E+00  0.000000E+00  0.000000E+00  0.000000E+00  0.000000E+00
                      0.000000E+00  0.000000E+00  0.000000E+00  0.000000E+00  0.000000E+00  0.000000E+00
                      0.000000E+00  0.000000E+00  0.000000E+00  0.000000E+00  0.000000E+00  0.000000E+00
                      0.000000E+00  0.000000E+00  0.000000E+00  0.000000E+00  0.000000E+00  0.000000E+00
                      0.000000E+00  0.000000E+00  0.000000E+00  0.000000E+00  0.000000E+00  0.000000E+00
                      0.000000E+00  0.000000E+00  0.000000E+00  0.000000E+00  0.000000E+00  0.000000E+00
                      0.000000E+00  0.000000E+00  0.000000E+00  0.000000E+00  0.000000E+00  0.000000E+00
                      0.000000E+00  0.000000E+00  0.000000E+00  0.000000E+00  0.000000E+00  0.000000E+00
                      0.000000E+00  0.000000E+00  0.000000E+00  0.000000E+00  0.000000E+00  0.000000E+00
                      0.000000E+00  0.000000E+00  0.000000E+00  0.000000E+00  0.000000E+00  0.000000E+00
                      0.000000E+00  0.000000E+00  0.000000E+00  0.000000E+00  0.000000E+00  0.000000E+00
                      0.000000E+00  0.000000E+00  0.000000E+00  0.000000E+00  0.000000E+00  0.000000E+00
                      0.000000E+00  0.000000E+00  0.000000E+00  0.000000E+00  0.000000E+00  0.000000E+00
                      0.000000E+00  0.000000E+00  0.000000E+00  0.000000E+00  0.000000E+00  0.000000E+00
                      0.000000E+00  0.000000E+00  0.000000E+00  0.000000E+00  0.000000E+00  0.000000E+00
                      0.000000E+00  0.000000E+00  0.000000E+00  0.000000E+00  0.000000E+00  0.000000E+00
                      0.000000E+00  0.000000E+00  0.000000E+00  0.000000E+00  0.000000E+00  0.000000E+00
                      0.000000E+00  0.000000E+00  0.000000E+00  0.000000E+00  0.000000E+00  0.000000E+00
                      0.000000E+00  0.000000E+00  0.000000E+00  0.000000E+00  0.000000E+00  0.000000E+00
                      0.000000E+00  0.000000E+00  0.000000E+00  0.000000E+00  0.000000E+00  0.000000E+00
                      0.000000E+00  0.000000E+00  0.000000E+00  0.000000E+00  0.000000E+00  0.000000E+00
                      0.000000E+00  0.000000E+00  0.000000E+00  0.000000E+00  0.000000E+00  0.000000E+00
                      0.000000E+00  0.000000E+00  0.000000E+00  0.000000E+00  0.000000E+00  0.000000E+00
                      0.000000E+00  0.000000E+00  0.000000E+00  0.000000E+00  0.000000E+00  0.000000E+00
                      0.000000E+00  0.000000E+00  0.000000E+00  0.000000E+00  0.000000E+00  0.000000E+00
                      0.000000E+00  0.000000E+00  0.000000E+00  0.000000E+00  0.000000E+00  0.000000E+00
                      0.000000E+00  0.000000E+00  0.000000E+00  0.000000E+00  0.000000E+00  0.000000E+00
                      0.000000E+00  0.000000E+00  0.000000E+00  0.000000E+00  0.000000E+00  0.000000E+00
                      0.000000E+00  0.000000E+00  0.000000E+00  0.000000E+00  0.000000E+00  0.000000E+00
                      0.000000E+00  0.000000E+00  0.000000E+00  0.000000E+00  0.000000E+00  0.000000E+00
                      0.000000E+00  0.000000E+00  0.000000E+00  0.000000E+00  0.000000E+00  0.000000E+00
                      0.000000E+00  0.000000E+00  0.000000E+00  0.000000E+00  0.000000E+00  0.000000E+00
                      0.000000E+00  0.000000E+00  0.000000E+00  0.000000E+00  0.000000E+00  0.000000E+00
                      0.000000E+00  0.000000E+00  0.000000E+00  0.000000E+00  0.000000E+00  0.000000E+00
                      0.000000E+00  0.000000E+00  0.000000E+00  0.000000E+00  0.000000E+00  0.000000E+00
                      0.000000E+00  0.000000E+00  0.000000E+00  0.000000E+00  0.000000E+00  0.000000E+00
                      0.000000E+00  0.000000E+00  0.000000E+00  0.000000E+00  0.000000E+00  0.000000E+00
                      0.000000E+00  0.000000E+00  0.000000E+00  0.000000E+00  0.000000E+00  0.000000E+00
                      0.000000E+00  0.000000E+00  0.000000E+00  0.000000E+00  0.000000E+00  0.000000E+00
                      0.000000E+00  0.000000E+00  0.000000E+00  0.000000E+00  0.000000E+00  0.000000E+00
                      0.000000E+00  0.000000E+00  0.000000E+00  0.000000E+00  0.000000E+00  0.000000E+00
                      0.000000E+00  0.000000E+00  0.000000E+00  0.000000E+00  0.000000E+00  0.000000E+00
                      0.000000E+00  0.000000E+00  0.000000E+00  0.000000E+00  0.000000E+00  0.000000E+00
                      0.000000E+00  0.000000E+00  0.000000E+00  0.000000E+00  0.000000E+00  0.000000E+00
                      0.000000E+00  0.000000E+00  0.000000E+00  0.000000E+00  0.000000E+00  0.000000E+00
                      0.000000E+00  0.000000E+00  0.000000E+00  0.000000E+00  0.000000E+00  0.000000E+00
                      0.000000E+00  0.000000E+00  0.000000E+00  0.000000E+00  0.000000E+00  0.000000E+00
                      0.000000E+00  0.000000E+00  0.000000E+00  0.000000E+00  0.000000E+00  0.000000E+00
                      0.000000E+00  0.000000E+00  0.000000E+00  0.000000E+00  0.000000E+00  0.000000E+00
                      0.000000E+00  0.000000E+00  0.000000E+00  0.000000E+00  0.000000E+00  0.000000E+00
                      0.000000E+00  0.000000E+00  0.000000E+00  0.000000E+00  0.000000E+00  0.000000E+00
                      0.000000E+00  0.000000E+00  0.000000E+00  0.000000E+00  0.000000E+00  0.000000E+00
                      0.000000E+00  0.000000E+00  0.000000E+00  0.000000E+00  0.000000E+00  0.000000E+00
                      0.000000E+00  0.000000E+00  0.000000E+00  0.000000E+00  0.000000E+00  0.000000E+00
                      0.000000E+00  0.000000E+00  0.000000E+00  0.000000E+00  0.000000E+00  0.000000E+00
                      0.000000E+00  0.000000E+00  0.000000E+00  0.000000E+00  0.000000E+00  0.000000E+00
                      0.000000E+00  0.000000E+00  0.000000E+00  0.000000E+00  0.000000E+00  0.000000E+00
                      0.000000E+00  0.000000E+00  0.000000E+00  0.000000E+00  0.000000E+00  0.000000E+00
                      0.000000E+00  0.000000E+00  0.000000E+00  0.000000E+00  0.000000E+00  0.000000E+00
                      0.000000E+00  0.000000E+00  0.000000E+00  0.000000E+00  0.000000E+00  0.000000E+00
                      0.000000E+00  0.000000E+00  0.000000E+00  0.000000E+00  0.000000E+00  0.000000E+00
                      0.000000E+00  0.000000E+00  0.000000E+00  0.000000E+00  0.000000E+00  0.000000E+00
                      0.000000E+00  0.000000E+00  0.000000E+00  0.000000E+00  0.000000E+00  0.000000E+00
                      0.000000E+00  0.000000E+00  0.000000E+00  0.000000E+00  0.000000E+00  0.000000E+00
                      0.000000E+00  0.000000E+00  0.000000E+00  0.000000E+00  0.000000E+00  0.000000E+00
                      0.000000E+00  0.000000E+00  0.000000E+00  0.000000E+00  0.000000E+00  0.000000E+00
                      0.000000E+00  0.000000E+00  0.000000E+00  0.000000E+00  0.000000E+00  0.000000E+00
                      0.000000E+00  0.000000E+00  0.000000E+00  0.000000E+00  0.000000E+00  0.000000E+00
                      0.000000E+00  0.000000E+00  0.000000E+00  0.000000E+00  0.000000E+00  0.000000E+00
                      0.000000E+00  0.000000E+00  0.000000E+00  0.000000E+00  0.000000E+00  0.000000E+00