<?xml version="1.0"?>
<!-- PROGRAMME=CASTEM/SORVTK   UTILISATEUR=cast2clo   DATE=04/03/2022   TITRE=disp -->
<VTKFile type="UnstructuredGrid" version="0.1">
    <UnstructuredGrid>
        <Piece NumberOfPoints="1988" NumberOfCells="1508">
            <Points>
                <DataArray type="Float32" NumberOfComponents="3" format="ascii">
                      0.100000E+01 -0.244929E-15  0.000000E+00
                      0.120000E+01 -0.293915E-15  0.000000E+00
                      0.140000E+01 -0.342901E-15  0.000000E+00
                      0.160000E+01 -0.391887E-15  0.000000E+00
                      0.180000E+01 -0.440873E-15  0.000000E+00
                      0.978148E+00  0.207912E+00  0.000000E+00
                      0.117378E+01  0.249494E+00  0.000000E+00
                      0.136941E+01  0.291076E+00  0.000000E+00
                      0.156504E+01  0.332659E+00  0.000000E+00
                      0.176067E+01  0.374241E+00  0.000000E+00
                      0.913545E+00  0.406737E+00  0.000000E+00
                      0.109625E+01  0.488084E+00  0.000000E+00
                      0.127896E+01  0.569431E+00  0.000000E+00
                      0.146167E+01  0.650779E+00  0.000000E+00
                      0.164438E+01  0.732126E+00  0.000000E+00
                      0.809017E+00  0.587785E+00  0.000000E+00
                      0.970820E+00  0.705342E+00  0.000000E+00
                      0.113262E+01  0.822899E+00  0.000000E+00
                      0.129443E+01  0.940456E+00  0.000000E+00
                      0.145623E+01  0.105801E+01  0.000000E+00
                      0.669131E+00  0.743145E+00  0.000000E+00
                      0.802957E+00  0.891774E+00  0.000000E+00
                      0.936783E+00  0.104040E+01  0.000000E+00
                      0.107061E+01  0.118903E+01  0.000000E+00
                      0.120444E+01  0.133766E+01  0.000000E+00
                      0.500000E+00  0.866025E+00  0.000000E+00
                      0.600000E+00  0.103923E+01  0.000000E+00
                      0.700000E+00  0.121244E+01  0.000000E+00
                      0.800000E+00  0.138564E+01  0.000000E+00
                      0.900000E+00  0.155885E+01  0.000000E+00
                      0.309017E+00  0.951057E+00  0.000000E+00
                      0.370820E+00  0.114127E+01  0.000000E+00
                      0.432624E+00  0.133148E+01  0.000000E+00
                      0.494427E+00  0.152169E+01  0.000000E+00
                      0.556231E+00  0.171190E+01  0.000000E+00
                      0.104528E+00  0.994522E+00  0.000000E+00
                      0.125434E+00  0.119343E+01  0.000000E+00
                      0.146340E+00  0.139233E+01  0.000000E+00
                      0.167246E+00  0.159124E+01  0.000000E+00
                      0.188151E+00  0.179014E+01  0.000000E+00
                     -0.104528E+00  0.994522E+00  0.000000E+00
                     -0.125434E+00  0.119343E+01  0.000000E+00
                     -0.146340E+00  0.139233E+01  0.000000E+00
                     -0.167246E+00  0.159124E+01  0.000000E+00
                     -0.188151E+00  0.179014E+01  0.000000E+00
                     -0.309017E+00  0.951057E+00  0.000000E+00
                     -0.370820E+00  0.114127E+01  0.000000E+00
                     -0.432624E+00  0.133148E+01  0.000000E+00
                     -0.494427E+00  0.152169E+01  0.000000E+00
                     -0.556231E+00  0.171190E+01  0.000000E+00
                     -0.500000E+00  0.866025E+00  0.000000E+00
                     -0.600000E+00  0.103923E+01  0.000000E+00
                     -0.700000E+00  0.121244E+01  0.000000E+00
                     -0.800000E+00  0.138564E+01  0.000000E+00
                     -0.900000E+00  0.155885E+01  0.000000E+00
                     -0.669131E+00  0.743145E+00  0.000000E+00
                     -0.802957E+00  0.891774E+00  0.000000E+00
                     -0.936783E+00  0.104040E+01  0.000000E+00
                     -0.107061E+01  0.118903E+01  0.000000E+00
                     -0.120444E+01  0.133766E+01  0.000000E+00
                     -0.809017E+00  0.587785E+00  0.000000E+00
                     -0.970820E+00  0.705342E+00  0.000000E+00
                     -0.113262E+01  0.822899E+00  0.000000E+00
                     -0.129443E+01  0.940456E+00  0.000000E+00
                     -0.145623E+01  0.105801E+01  0.000000E+00
                     -0.913545E+00  0.406737E+00  0.000000E+00
                     -0.109625E+01  0.488084E+00  0.000000E+00
                     -0.127896E+01  0.569431E+00  0.000000E+00
                     -0.146167E+01  0.650779E+00  0.000000E+00
                     -0.164438E+01  0.732126E+00  0.000000E+00
                     -0.978148E+00  0.207912E+00  0.000000E+00
                     -0.117378E+01  0.249494E+00  0.000000E+00
                     -0.136941E+01  0.291076E+00  0.000000E+00
                     -0.156504E+01  0.332659E+00  0.000000E+00
                     -0.176067E+01  0.374241E+00  0.000000E+00
                     -0.100000E+01  0.566554E-15  0.000000E+00
                     -0.120000E+01  0.679865E-15  0.000000E+00
                     -0.140000E+01  0.793175E-15  0.000000E+00
                     -0.160000E+01  0.906486E-15  0.000000E+00
                     -0.180000E+01  0.101980E-14  0.000000E+00
                     -0.978148E+00 -0.207912E+00  0.000000E+00
                     -0.117378E+01 -0.249494E+00  0.000000E+00
                     -0.136941E+01 -0.291076E+00  0.000000E+00
                     -0.156504E+01 -0.332659E+00  0.000000E+00
                     -0.176067E+01 -0.374241E+00  0.000000E+00
                     -0.913545E+00 -0.406737E+00  0.000000E+00
                     -0.109625E+01 -0.488084E+00  0.000000E+00
                     -0.127896E+01 -0.569431E+00  0.000000E+00
                     -0.146167E+01 -0.650779E+00  0.000000E+00
                     -0.164438E+01 -0.732126E+00  0.000000E+00
                     -0.809017E+00 -0.587785E+00  0.000000E+00
                     -0.970820E+00 -0.705342E+00  0.000000E+00
                     -0.113262E+01 -0.822899E+00  0.000000E+00
                     -0.129443E+01 -0.940456E+00  0.000000E+00
                     -0.145623E+01 -0.105801E+01  0.000000E+00
                     -0.669131E+00 -0.743145E+00  0.000000E+00
                     -0.802957E+00 -0.891774E+00  0.000000E+00
                     -0.936783E+00 -0.104040E+01  0.000000E+00
                     -0.107061E+01 -0.118903E+01  0.000000E+00
                     -0.120444E+01 -0.133766E+01  0.000000E+00
                     -0.500000E+00 -0.866025E+00  0.000000E+00
                     -0.600000E+00 -0.103923E+01  0.000000E+00
                     -0.700000E+00 -0.121244E+01  0.000000E+00
                     -0.800000E+00 -0.138564E+01  0.000000E+00
                     -0.900000E+00 -0.155885E+01  0.000000E+00
                     -0.309017E+00 -0.951057E+00  0.000000E+00
                     -0.370820E+00 -0.114127E+01  0.000000E+00
                     -0.432624E+00 -0.133148E+01  0.000000E+00
                     -0.494427E+00 -0.152169E+01  0.000000E+00
                     -0.556231E+00 -0.171190E+01  0.000000E+00
                     -0.104528E+00 -0.994522E+00  0.000000E+00
                     -0.125434E+00 -0.119343E+01  0.000000E+00
                     -0.146340E+00 -0.139233E+01  0.000000E+00
                     -0.167246E+00 -0.159124E+01  0.000000E+00
                     -0.188151E+00 -0.179014E+01  0.000000E+00
                      0.104528E+00 -0.994522E+00  0.000000E+00
                      0.125434E+00 -0.119343E+01  0.000000E+00
                      0.146340E+00 -0.139233E+01  0.000000E+00
                      0.167246E+00 -0.159124E+01  0.000000E+00
                      0.188151E+00 -0.179014E+01  0.000000E+00
                      0.309017E+00 -0.951057E+00  0.000000E+00
                      0.370820E+00 -0.114127E+01  0.000000E+00
                      0.432624E+00 -0.133148E+01  0.000000E+00
                      0.494427E+00 -0.152169E+01  0.000000E+00
                      0.556231E+00 -0.171190E+01  0.000000E+00
                      0.500000E+00 -0.866025E+00  0.000000E+00
                      0.600000E+00 -0.103923E+01  0.000000E+00
                      0.700000E+00 -0.121244E+01  0.000000E+00
                      0.800000E+00 -0.138564E+01  0.000000E+00
                      0.900000E+00 -0.155885E+01  0.000000E+00
                      0.669131E+00 -0.743145E+00  0.000000E+00
                      0.802957E+00 -0.891774E+00  0.000000E+00
                      0.936783E+00 -0.104040E+01  0.000000E+00
                      0.107061E+01 -0.118903E+01  0.000000E+00
                      0.120444E+01 -0.133766E+01  0.000000E+00
                      0.809017E+00 -0.587785E+00  0.000000E+00
                      0.970820E+00 -0.705342E+00  0.000000E+00
                      0.113262E+01 -0.822899E+00  0.000000E+00
                      0.129443E+01 -0.940456E+00  0.000000E+00
                      0.145623E+01 -0.105801E+01  0.000000E+00
                      0.913545E+00 -0.406737E+00  0.000000E+00
                      0.109625E+01 -0.488084E+00  0.000000E+00
                      0.127896E+01 -0.569431E+00  0.000000E+00
                      0.146167E+01 -0.650779E+00  0.000000E+00
                      0.164438E+01 -0.732126E+00  0.000000E+00
                      0.978148E+00 -0.207912E+00  0.000000E+00
                      0.117378E+01 -0.249494E+00  0.000000E+00
                      0.136941E+01 -0.291076E+00  0.000000E+00
                      0.156504E+01 -0.332659E+00  0.000000E+00
                      0.176067E+01 -0.374241E+00  0.000000E+00
                      0.100000E+01 -0.244929E-15  0.500000E+00
                      0.120000E+01 -0.293915E-15  0.500000E+00
                      0.140000E+01 -0.342901E-15  0.500000E+00
[...]
            <PointData>
                <DataArray type="Float32" Name="DISP" NumberOfComponents="6" ComponentName0="UX" ComponentName1="UY" ComponentName2="UZ" ComponentName3="RX" ComponentName4="RY" ComponentName5="RZ" format="ascii">
                      0.000000E+00  0.000000E+00  0.000000E+00  0.000000E+00  0.000000E+00  0.000000E+00
                      0.000000E+00  0.000000E+00  0.000000E+00  0.000000E+00  0.000000E+00  0.000000E+00
                      0.000000E+00  0.000000E+00  0.000000E+00  0.000000E+00  0.000000E+00  0.000000E+00
                      0.000000E+00  0.000000E+00  0.000000E+00  0.000000E+00  0.000000E+00  0.000000E+00
                      0.000000E+00  0.000000E+00  0.000000E+00  0.000000E+00  0.000000E+00  0.000000E+00
                      0.000000E+00  0.000000E+00  0.000000E+00  0.000000E+00  0.000000E+00  0.000000E+00
                      0.000000E+00  0.000000E+00  0.000000E+00  0.000000E+00  0.000000E+00  0.000000E+00
                      0.000000E+00  0.000000E+00  0.000000E+00  0.000000E+00  0.000000E+00  0.000000E+00
                      0.000000E+00  0.000000E+00  0.000000E+00  0.000000E+00  0.000000E+00  0.000000E+00
                      0.000000E+00  0.000000E+00  0.000000E+00  0.000000E+00  0.000000E+00  0.000000E+00
                      0.000000E+00  0.000000E+00  0.000000E+00  0.000000E+00  0.000000E+00  0.000000E+00
                      0.000000E+00  0.000000E+00  0.000000E+00  0.000000E+00  0.000000E+00  0.000000E+00
                      0.000000E+00  0.000000E+00  0.000000E+00  0.000000E+00  0.000000E+00  0.000000E+00
                      0.000000E+00  0.000000E+00  0.000000E+00  0.000000E+00  0.000000E+00  0.000000E+00
                      0.000000E+00  0.000000E+00  0.000000E+00  0.000000E+00  0.000000E+00  0.000000E+00
                      0.000000E+00  0.000000E+00  0.000000E+00  0.000000E+00  0.000000E+00  0.000000E+00
                      0.000000E+00  0.000000E+00  0.000000E+00  0.000000E+00  0.000000E+00  0.000000E+00
                      0.000000E+00  0.000000E+00  0.000000E+00  0.000000E+00  0.000000E+00  0.000000E+00
                      0.000000E+00  0.000000E+00  0.000000E+00  0.000000E+00  0.000000E+00  0.000000E+00
                      0.000000E+00  0.000000E+00  0.000000E+00  0.000000E+00  0.000000E+00  0.000000E+00
                      0.000000E+00  0.000000E+00  0.000000E+00  0.000000E+00  0.000000E+00  0.000000E+00
                      0.000000E+00  0.000000E+00  0.000000E+00  0.000000E+00  0.000000E+00  0.000000E+00
                      0.000000E+00  0.000000E+00  0.000000E+00  0.000000E+00  0.000000E+00  0.000000E+00
                      0.000000E+00  0.000000E+00  0.000000E+00  0.000000E+00  0.000000E+00  0.000000E+00
                      0.000000E+00  0.000000E+00  0.000000E+00  0.000000E+00  0.000000E+00  0.000000E+00
                      0.000000E+00  0.000000E+00  0.000000E+00  0.000000E+00  0.000000E+00  0.000000E+00
                      0.000000E+00  0.000000E+00  0.000000E+00  0.000000E+00  0.000000E+00  0.000000E+00
                      0.000000E+00  0.000000E+00  0.000000E+00  0.000000E+00  0.000000E+00  0.000000E+00
                      0.000000E+00  0.000000E+00  0.000000E+00  0.000000E+00  0.000000E+00  0.000000E+00
                      0.000000E+00  0.000000E+00  0.000000E+00  0.000000E+00  0.000000E+00  0.000000E+00
                      0.000000E+00  0.000000E+00  0.000000E+00  0.000000E+00  0.000000E+00  0.000000E+00
                      0.000000E+00  0.000000E+00  0.000000E+00  0.000000E+00  0.000000E+00  0.000000E+00
                      0.000000E+00  0.000000E+00  0.000000E+00  0.000000E+00  0.000000E+00  0.000000E+00
                      0.000000E+00  0.000000E+00  0.000000E+00  0.000000E+00  0.000000E+00  0.000000E+00
                      0.000000E+00  0.000000E+00  0.000000E+00  0.000000E+00  0.000000E+00  0.000000E+00
                      0.000000E+00  0.000000E+00  0.000000E+00  0.000000E+00  0.000000E+00  0.000000E+00
                      0.000000E+00  0.000000E+00  0.000000E+00  0.000000E+00  0.000000E+00  0.000000E+00
                      0.000000E+00  0.000000E+00  0.000000E+00  0.000000E+00  0.000000E+00  0.000000E+00
                      0.000000E+00  0.000000E+00  0.000000E+00  0.000000E+00  0.000000E+00  0.000000E+00
                      0.000000E+00  0.000000E+00  0.000000E+00  0.000000E+00  0.000000E+00  0.000000E+00
                      0.000000E+00  0.000000E+00  0.000000E+00  0.000000E+00  0.000000E+00  0.000000E+00
                      0.000000E+00  0.000000E+00  0.000000E+00  0.000000E+00  0.000000E+00  0.000000E+00
                      0.000000E+00  0.000000E+00  0.000000E+00  0.000000E+00  0.000000E+00  0.000000E+00
                      0.000000E+00  0.000000E+00  0.000000E+00  0.000000E+00  0.000000E+00  0.000000E+00
                      0.000000E+00  0.000000E+00  0.000000E+00  0.000000E+00  0.000000E+00  0.000000E+00
                      0.000000E+00  0.000000E+00  0.000000E+00  0.000000E+00  0.000000E+00  0.000000E+00
                      0.000000E+00  0.000000E+00  0.000000E+00  0.000000E+00  0.000000E+00  0.000000E+00
                      0.000000E+00  0.000000E+00  0.000000E+00  0.000000E+00  0.000000E+00  0.000000E+00
                      0.000000E+00  0.000000E+00  0.000000E+00  0.000000E+00  0.000000E+00  0.000000E+00
                      0.000000E+00  0.000000E+00  0.000000E+00  0.000000E+00  0.000000E+00  0.000000E+00
                      0.000000E+00  0.000000E+00  0.000000E+00  0.000000E+00  0.000000E+00  0.000000E+00
                      0.000000E+00  0.000000E+00  0.000000E+00  0.000000E+00  0.000000E+00  0.000000E+00
                      0.000000E+00  0.000000E+00  0.000000E+00  0.000000E+00  0.000000E+00  0.000000E+00
                      0.000000E+00  0.000000E+00  0.000000E+00  0.000000E+00  0.000000E+00  0.000000E+00
                      0.000000E+00  0.000000E+00  0.000000E+00  0.000000E+00  0.000000E+00  0.000000E+00
                      0.000000E+00  0.000000E+00  0.000000E+00  0.000000E+00  0.000000E+00  0.000000E+00
                      0.000000E+00  0.000000E+00  0.000000E+00  0.000000E+00  0.000000E+00  0.000000E+00
                      0.000000E+00  0.000000E+00  0.000000E+00  0.000000E+00  0.000000E+00  0.000000E+00
                      0.000000E+00  0.000000E+00  0.000000E+00  0.000000E+00  0.000000E+00  0.000000E+00
                      0.000000E+00  0.000000E+00  0.000000E+00  0.000000E+00  0.000000E+00  0.000000E+00
                      0.000000E+00  0.000000E+00  0.000000E+00  0.000000E+00  0.000000E+00  0.000000E+00
                      0.000000E+00  0.000000E+00  0.000000E+00  0.000000E+00  0.000000E+00  0.000000E+00
                      0.000000E+00  0.000000E+00  0.000000E+00  0.000000E+00  0.000000E+00  0.000000E+00
                      0.000000E+00  0.000000E+00  0.000000E+00  0.000000E+00  0.000000E+00  0.000000E+00
                      0.000000E+00  0.000000E+00  0.000000E+00  0.000000E+00  0.000000E+00  0.000000E+00
                      0.000000E+00  0.000000E+00  0.000000E+00  0.000000E+00  0.000000E+00  0.000000E+00
                      0.000000E+00  0.000000E+00  0.000000E+00  0.000000E+00  0.000000E+00  0.000000E+00
                      0.000000E+00  0.000000E+00  0.000000E+00  0.000000E+00  0.000000E+00  0.000000E+00
                      0.000000E+00  0.000000E+00  0.000000E+00  0.000000E+00  0.000000E+00  0.000000E+00
                      0.000000E+00  0.000000E+00  0.000000E+00  0.000000E+00  0.000000E+00  0.000000E+00
                      0.000000E+00  0.000000E+00  0.000000E+00  0.000000E+00  0.000000E+00  0.000000E+00
                      0.000000E+00  0.000000E+00  0.000000E+00  0.000000E+00  0.000000E+00  0.000000E+00
                      0.000000E+00  0.000000E+00  0.000000E+00  0.000000E+00  0.000000E+00  0.000000E+00
                      0.000000E+00  0.000000E+00  0.000000E+00  0.000000E+00  0.000000E+00  0.000000E+00
                      0.000000E+00  0.000000E+00  0.000000E+00  0.000000E+00  0.000000E+00  0.000000E+00
                      0.000000E+00  0.000000E+00  0.000000E+00  0.000000E+00  0.000000E+00  0.000000E+00
                      0.000000E+00  0.000000E+00  0.000000E+00  0.000000E+00  0.000000E+00  0.000000E+00
                      0.000000E+00  0.000000E+00  0.000000E+00  0.000000E+00  0.000000E+00  0.000000E+00
                      0.000000E+00  0.000000E+00  0.000000E+00  0.000000E+00  0.000000E+00  0.000000E+00
                      0.000000E+00  0.000000E+00  0.000000E+00  0.000000E+00  0.000000E+00  0.000000E+00
                      0.000000E+00  0.000000E+00  0.000000E+00  0.000000E+00  0.000000E+00  0.000000E+00
                      0.000000E+00  0.000000E+00  0.000000E+00  0.000000E+00  0.000000E+00  0.000000E+00
                      0.000000E+00  0.000000E+00  0.000000E+00  0.000000E+00  0.000000E+00  0.000000E+00
                      0.000000E+00  0.000000E+00  0.000000E+00  0.000000E+00  0.000000E+00  0.000000E+00
                      0.000000E+00  0.000000E+00  0.000000E+00  0.000000E+00  0.000000E+00  0.000000E+00
                      0.000000E+00  0.000000E+00  0.000000E+00  0.000000E+00  0.000000E+00  0.000000E+00
                      0.000000E+00  0.000000E+00  0.000000E+00  0.000000E+00  0.000000E+00  0.000000E+00
                      0.000000E+00  0.000000E+00  0.000000E+00  0.000000E+00  0.000000E+00  0.000000E+00
                      0.000000E+00  0.000000E+00  0.000000E+00  0.000000E+00  0.000000E+00  0.000000E+00
                      0.000000E+00  0.000000E+00  0.000000E+00  0.000000E+00  0.000000E+00  0.000000E+00
                      0.000000E+00  0.000000E+00  0.000000E+00  0.000000E+00  0.000000E+00  0.000000E+00
                      0.000000E+00  0.000000E+00  0.000000E+00  0.000000E+00  0.000000E+00  0.000000E+00
                      0.000000E+00  0.000000E+00  0.000000E+00  0.000000E+00  0.000000E+00  0.000000E+00
                      0.000000E+00  0.000000E+00  0.000000E+00  0.000000E+00  0.000000E+00  0.000000E+00
                      0.000000E+00  0.000000E+00  0.000000E+00  0.000000E+00  0.000000E+00  0.000000E+00
                      0.000000E+00  0.000000E+00  0.000000E+00  0.000000E+00  0.000000E+00  0.000000E+00
                      0.000000E+00  0.000000E+00  0.000000E+00  0.000000E+00  0.000000E+00  0.000000E+00
                      0.000000E+00  0.000000E+00  0.000000E+00  0.000000E+00  0.000000E+00  0.000000E+00
                      0.000000E+00  0.000000E+00  0.000000E+00  0.000000E+00  0.000000E+00  0.000000E+00
                      0.000000E+00  0.000000E+00  0.000000E+00  0.000000E+00  0.000000E+00  0.000000E+00
                      0.000000E+00  0.000000E+00  0.000000E+00  0.000000E+00  0.000000E+00  0.000000E+00
                      0.000000E+00  0.000000E+00  0.000000E+00  0.000000E+00  0.000000E+00  0.000000E+00
                      0.000000E+00  0.000000E+00  0.000000E+00  0.000000E+00  0.000000E+00  0.000000E+00
                      0.000000E+00  0.000000E+00  0.000000E+00  0.000000E+00  0.000000E+00  0.000000E+00
                      0.000000E+00  0.000000E+00  0.000000E+00  0.000000E+00  0.000000E+00  0.000000E+00
                      0.000000E+00  0.000000E+00  0.000000E+00  0.000000E+00  0.000000E+00  0.000000E+00
                      0.000000E+00  0.000000E+00  0.000000E+00  0.000000E+00  0.000000E+00  0.000000E+00
                      0.000000E+00  0.000000E+00  0.000000E+00  0.000000E+00  0.000000E+00  0.000000E+00
                      0.000000E+00  0.000000E+00  0.000000E+00  0.000000E+00  0.000000E+00  0.000000E+00
                      0.000000E+00  0.000000E+00  0.000000E+00  0.000000E+00  0.000000E+00  0.000000E+00
                      0.000000E+00  0.000000E+00  0.000000E+00  0.000000E+00  0.000000E+00  0.000000E+00
                      0.000000E+00  0.000000E+00  0.000000E+00  0.000000E+00  0.000000E+00  0.000000E+00
                      0.000000E+00  0.000000E+00  0.000000E+00  0.000000E+00  0.000000E+00  0.000000E+00
                      0.000000E+00  0.000000E+00  0.000000E+00  0.000000E+00  0.000000E+00  0.000000E+00
                      0.000000E+00  0.000000E+00  0.000000E+00  0.000000E+00  0.000000E+00  0.000000E+00
                      0.000000E+00  0.000000E+00  0.000000E+00  0.000000E+00  0.000000E+00  0.000000E+00
                      0.000000E+00  0.000000E+00  0.000000E+00  0.000000E+00  0.000000E+00  0.000000E+00
                      0.000000E+00  0.000000E+00  0.000000E+00  0.000000E+00  0.000000E+00  0.000000E+00
                      0.000000E+00  0.000000E+00  0.000000E+00  0.000000E+00  0.000000E+00  0.000000E+00
                      0.000000E+00  0.000000E+00  0.000000E+00  0.000000E+00  0.000000E+00  0.000000E+00
                      0.000000E+00  0.000000E+00  0.000000E+00  0.000000E+00  0.000000E+00  0.000000E+00
                      0.000000E+00  0.000000E+00  0.000000E+00  0.000000E+00  0.000000E+00  0.000000E+00
                      0.000000E+00  0.000000E+00  0.000000E+00  0.000000E+00  0.000000E+00  0.000000E+00
                      0.000000E+00  0.000000E+00  0.000000E+00  0.000000E+00  0.000000E+00  0.000000E+00
                      0.000000E+00  0.000000E+00  0.000000E+00  0.000000E+00  0.000000E+00  0.000000E+00
                      0.000000E+00  0.000000E+00  0.000000E+00  0.000000E+00  0.000000E+00  0.000000E+00
                      0.000000E+00  0.000000E+00  0.000000E+00  0.000000E+00  0.000000E+00  0.000000E+00
                      0.000000E+00  0.000000E+00  0.000000E+00  0.000000E+00  0.000000E+00  0.000000E+00
                      0.000000E+00  0.000000E+00  0.000000E+00  0.000000E+00  0.000000E+00  0.000000E+00
                      0.000000E+00  0.000000E+00  0.000000E+00  0.000000E+00  0.000000E+00  0.000000E+00
                      0.000000E+00  0.000000E+00  0.000000E+00  0.000000E+00  0.000000E+00  0.000000E+00
                      0.000000E+00  0.000000E+00  0.000000E+00  0.000000E+00  0.000000E+00  0.000000E+00
                      0.000000E+00  0.000000E+00  0.000000E+00  0.000000E+00  0.000000E+00  0.000000E+00
                      0.000000E+00  0.000000E+00  0.000000E+00  0.000000E+00  0.000000E+00  0.000000E+00
                      0.000000E+00  0.000000E+00  0.000000E+00  0.000000E+00  0.000000E+00  0.000000E+00
                      0.000000E+00  0.000000E+00  0.000000E+00  0.000000E+00  0.000000E+00  0.000000E+00
                      0.000000E+00  0.000000E+00  0.000000E+00  0.000000E+00  0.000000E+00  0.000000E+00
                      0.000000E+00  0.000000E+00  0.000000E+00  0.000000E+00  0.000000E+00  0.000000E+00
                      0.000000E+00  0.000000E+00  0.000000E+00  0.000000E+00  0.000000E+00  0.000000E+00
                      0.000000E+00  0.000000E+00  0.000000E+00  0.000000E+00  0.000000E+00  0.000000E+00
                      0.000000E+00  0.000000E+00  0.000000E+00  0.000000E+00  0.000000E+00  0.000000E+00
                      0.000000E+00  0.000000E+00  0.000000E+00  0.000000E+00  0.000000E+00  0.000000E+00
                      0.000000E+00  0.000000E+00  0.000000E+00  0.000000E+00  0.000000E+00  0.000000E+00
                      0.000000E+00  0.000000E+00  0.000000E+00  0.000000E+00  0.000000E+00  0.000000E+00
                      0.000000E+00  0.000000E+00  0.000000E+00  0.000000E+00  0.000000E+00  0.000000E+00
                      0.000000E+00  0.000000E+00  0.000000E+00  0.000000E+00  0.000000E+00  0.000000E+00
                      0.000000E+00  0.000000E+00  0.000000E+00  0.000000E+00  0.000000E+00  0.000000E+00
                      0.000000E+00  0.000000E+00  0.000000E+00  0.000000E+00  0.000000E+00  0.000000E+00
                      0.000000E+00  0.000000E+00  0.000000E+00  0.000000E+00  0.000000E+00  0.000000E+00
                      0.000000E+00  0.000000E+00  0.000000E+00  0.000000E+00  0.000000E+00  0.000000E+00
                      0.230714E-03  0.958042E-17  0.171679E-01  0.000000E+00  0.000000E+00  0.000000E+00
                     -0.335831E-02  0.400251E-17  0.182839E-01  0.000000E+00  0.000000E+00  0.000000E+00
                     -0.651659E-02  0.332538E-17  0.191720E-01  0.000000E+00  0.000000E+00  0.000000E+00
                     -0.958668E-02  0.116305E-16  0.201696E-01  0.000000E+00  0.000000E+00  0.000000E+00
                     -0.129198E-01 -0.939651E-18  0.217816E-01  0.000000E+00  0.000000E+00  0.000000E+00
                      0.225672E-03  0.479681E-04  0.171679E-01  0.000000E+00  0.000000E+00  0.000000E+00
                     -0.328492E-02 -0.698231E-03  0.182839E-01  0.000000E+00  0.000000E+00  0.000000E+00
                     -0.637419E-02 -0.135488E-02  0.191720E-01  0.000000E+00  0.000000E+00  0.000000E+00
                     -0.937719E-02 -0.199318E-02  0.201696E-01  0.000000E+00  0.000000E+00  0.000000E+00
                     -0.126375E-01 -0.268618E-02  0.217816E-01  0.000000E+00  0.000000E+00  0.000000E+00
                      0.210767E-03  0.938397E-04  0.171679E-01  0.000000E+00  0.000000E+00  0.000000E+00
                     -0.306797E-02 -0.136595E-02  0.182839E-01  0.000000E+00  0.000000E+00  0.000000E+00
                     -0.595320E-02 -0.265054E-02  0.191720E-01  0.000000E+00  0.000000E+00  0.000000E+00
                     -0.875787E-02 -0.389925E-02  0.201696E-01  0.000000E+00  0.000000E+00  0.000000E+00
                     -0.118028E-01 -0.525496E-02  0.217816E-01  0.000000E+00  0.000000E+00  0.000000E+00
                      0.186651E-03  0.135610E-03  0.171679E-01  0.000000E+00  0.000000E+00  0.000000E+00
                     -0.271693E-02 -0.197396E-02  0.182839E-01  0.000000E+00  0.000000E+00  0.000000E+00
                     -0.527203E-02 -0.383036E-02  0.191720E-01  0.000000E+00  0.000000E+00  0.000000E+00
                     -0.775579E-02 -0.563491E-02  0.201696E-01  0.000000E+00  0.000000E+00  0.000000E+00
                     -0.104523E-01 -0.759408E-02  0.217816E-01  0.000000E+00  0.000000E+00  0.000000E+00
                      0.154378E-03  0.171454E-03  0.171679E-01  0.000000E+00  0.000000E+00  0.000000E+00
                     -0.224715E-02 -0.249571E-02  0.182839E-01  0.000000E+00  0.000000E+00  0.000000E+00
                     -0.436045E-02 -0.484277E-02  0.191720E-01  0.000000E+00  0.000000E+00  0.000000E+00
                     -0.641474E-02 -0.712429E-02  0.201696E-01  0.000000E+00  0.000000E+00  0.000000E+00
                     -0.864504E-02 -0.960129E-02  0.217816E-01  0.000000E+00  0.000000E+00  0.000000E+00
                      0.115357E-03  0.199804E-03  0.171679E-01  0.000000E+00  0.000000E+00  0.000000E+00
                     -0.167915E-02 -0.290838E-02  0.182839E-01  0.000000E+00  0.000000E+00  0.000000E+00
                     -0.325830E-02 -0.564354E-02  0.191720E-01  0.000000E+00  0.000000E+00  0.000000E+00
                     -0.479334E-02 -0.830231E-02  0.201696E-01  0.000000E+00  0.000000E+00  0.000000E+00
                     -0.645991E-02 -0.111889E-01  0.217816E-01  0.000000E+00  0.000000E+00  0.000000E+00
                      0.712945E-04  0.219422E-03  0.171679E-01  0.000000E+00  0.000000E+00  0.000000E+00
                     -0.103777E-02 -0.319394E-02  0.182839E-01  0.000000E+00  0.000000E+00  0.000000E+00
                     -0.201374E-02 -0.619765E-02  0.191720E-01  0.000000E+00  0.000000E+00  0.000000E+00
                     -0.296245E-02 -0.911747E-02  0.201696E-01  0.000000E+00  0.000000E+00  0.000000E+00
                     -0.399244E-02 -0.122875E-01  0.217816E-01  0.000000E+00  0.000000E+00  0.000000E+00
                      0.241161E-04  0.229450E-03  0.171679E-01  0.000000E+00  0.000000E+00  0.000000E+00
                     -0.351039E-03 -0.333991E-02  0.182839E-01  0.000000E+00  0.000000E+00  0.000000E+00
                     -0.681169E-03 -0.648089E-02  0.191720E-01  0.000000E+00  0.000000E+00  0.000000E+00