<?xml version="1.0"?>
<VTKFile type="UnstructuredGrid"  version="0.1"  >
<UnstructuredGrid>
<Piece  NumberOfPoints="961" NumberOfCells="1800">
<Points>
<DataArray  type="Float64"  NumberOfComponents="3"  format="ascii">-2 -2 0  -1.866666666666667 -2 0  -1.733333333333333 -2 0  -1.6 -2 0  -1.466666666666667 -2 0  -1.333333333333333 -2 0  -1.2 -2 0  -1.066666666666667 -2 0  -0.9333333333333333 -2 0  -0.8 -2 0  -0.6666666666666667 -2 0  -0.5333333333333334 -2 0  -0.3999999999999999 -2 0  -0.2666666666666666 -2 0  -0.1333333333333333 -2 0  0 -2 0  0.1333333333333333 -2 0  0.2666666666666666 -2 0  0.3999999999999999 -2 0  0.5333333333333332 -2 0  0.6666666666666665 -2 0  0.7999999999999998 -2 0  0.9333333333333331 -2 0  1.066666666666667 -2 0  1.2 -2 0  1.333333333333333 -2 0  1.466666666666667 -2 0  1.6 -2 0  1.733333333333333 -2 0  1.866666666666667 -2 0  2 -2 0  -2 -1.866666666666667 0  -1.866666666666667 -1.866666666666667 0  -1.733333333333333 -1.866666666666667 0  -1.6 -1.866666666666667 0  -1.466666666666667 -1.866666666666667 0  -1.333333333333333 -1.866666666666667 0  -1.2 -1.866666666666667 0  -1.066666666666667 -1.866666666666667 0  -0.9333333333333333 -1.866666666666667 0  -0.8 -1.866666666666667 0  -0.6666666666666667 -1.866666666666667 0  -0.5333333333333334 -1.866666666666667 0  -0.3999999999999999 -1.866666666666667 0  -0.2666666666666666 -1.866666666666667 0  -0.1333333333333333 -1.866666666666667 0  0 -1.866666666666667 0  0.1333333333333333 -1.866666666666667 0  0.2666666666666666 -1.866666666666667 0  0.3999999999999999 -1.866666666666667 0  0.5333333333333332 -1.866666666666667 0  0.6666666666666665 -1.866666666666667 0  0.7999999999999998 -1.866666666666667 0  0.9333333333333331 -1.866666666666667 0  1.066666666666667 -1.866666666666667 0  1.2 -1.866666666666667 0  1.333333333333333 -1.866666666666667 0  1.466666666666667 -1.866666666666667 0  1.6 -1.866666666666667 0  1.733333333333333 -1.866666666666667 0  1.866666666666667 -1.866666666666667 0  2 -1.866666666666667 0  -2 -1.733333333333333 0  -1.866666666666667 -1.733333333333333 0  -1.733333333333333 -1.733333333333333 0  -1.6 -1.733333333333333 0  -1.466666666666667 -1.733333333333333 0  -1.333333333333333 -1.733333333333333 0  -1.2 -1.733333333333333 0  -1.066666666666667 -1.733333333333333 0  -0.9333333333333333 -1.733333333333333 0  -0.8 -1.733333333333333 0  -0.6666666666666667 -1.733333333333333 0  -0.5333333333333334 -1.733333333333333 0  -0.3999999999999999 -1.733333333333333 0  -0.2666666666666666 -1.733333333333333 0  -0.1333333333333333 -1.733333333333333 0  0 -1.733333333333333 0  0.1333333333333333 -1.733333333333333 0  0.2666666666666666 -1.733333333333333 0  0.3999999999999999 -1.733333333333333 0  0.5333333333333332 -1.733333333333333 0  0.6666666666666665 -1.733333333333333 0  0.7999999999999998 -1.733333333333333 0  0.9333333333333331 -1.733333333333333 0  1.066666666666667 -1.733333333333333 0  1.2 -1.733333333333333 0  1.333333333333333 -1.733333333333333 0  1.466666666666667 -1.733333333333333 0  1.6 -1.733333333333333 0  1.733333333333333 -1.733333333333333 0  1.866666666666667 -1.733333333333333 0  2 -1.733333333333333 0  -2 -1.6 0  -1.866666666666667 -1.6 0  -1.733333333333333 -1.6 0  -1.6 -1.6 0  -1.466666666666667 -1.6 0  -1.333333333333333 -1.6 0  -1.2 -1.6 0  -1.066666666666667 -1.6 0  -0.9333333333333333 -1.6 0  -0.8 -1.6 0  -0.6666666666666667 -1.6 0  -0.5333333333333334 -1.6 0  -0.3999999999999999 -1.6 0  -0.2666666666666666 -1.6 0  -0.1333333333333333 -1.6 0  0 -1.6 0  0.1333333333333333 -1.6 0  0.2666666666666666 -1.6 0  0.3999999999999999 -1.6 0  0.5333333333333332 -1.6 0  0.6666666666666665 -1.6 0  0.7999999999999998 -1.6 0  0.9333333333333331 -1.6 0  1.066666666666667 -1.6 0  1.2 -1.6 0  1.333333333333333 -1.6 0  1.466666666666667 -1.6 0  1.6 -1.6 0  1.733333333333333 -1.6 0  1.866666666666667 -1.6 0  2 -1.6 0  -2 -1.466666666666667 0  -1.866666666666667 -1.466666666666667 0  -1.733333333333333 -1.466666666666667 0  -1.6 -1.466666666666667 0  -1.466666666666667 -1.466666666666667 0  -1.333333333333333 -1.466666666666667 0  -1.2 -1.466666666666667 0  -1.066666666666667 -1.466666666666667 0  -0.9333333333333333 -1.466666666666667 0  -0.8 -1.466666666666667 0  -0.6666666666666667 -1.466666666666667 0  -0.5333333333333334 -1.466666666666667 0  -0.3999999999999999 -1.466666666666667 0  -0.2666666666666666 -1.466666666666667 0  -0.1333333333333333 -1.466666666666667 0  0 -1.466666666666667 0  0.1333333333333333 -1.466666666666667 0  0.2666666666666666 -1.466666666666667 0  0.3999999999999999 -1.466666666666667 0  0.5333333333333332 -1.466666666666667 0  0.6666666666666665 -1.466666666666667 0  0.7999999999999998 -1.466666666666667 0  0.9333333333333331 -1.466666666666667 0  1.066666666666667 -1.466666666666667 0  1.2 -1.466666666666667 0  1.333333333333333 -1.466666666666667 0  1.466666666666667 -1.466666666666667 0  1.6 -1.466666666666667 0  1.733333333333333 -1.466666666666667 0  1.866666666666667 -1.466666666666667 0  2 -1.466666666666667 0  -2 -1.333333333333333 0  -1.866666666666667 -1.333333333333333 0  -1.733333333333333 -1.333333333333333 0  -1.6 -1.333333333333333 0  -1.466666666666667 -1.333333333333333 0  -1.333333333333333 -1.333333333333333 0  -1.2 -1.333333333333333 0  -1.066666666666667 -1.333333333333333 0  -0.9333333333333333 -1.333333333333333 0  -0.8 -1.333333333333333 0  -0.6666666666666667 -1.333333333333333 0  -0.5333333333333334 -1.333333333333333 0  -0.3999999999999999 -1.333333333333333 0  -0.2666666666666666 -1.333333333333333 0  -0.1333333333333333 -1.333333333333333 0  0 -1.333333333333333 0  0.1333333333333333 -1.333333333333333 0  0.2666666666666666 -1.333333333333333 0  0.3999999999999999 -1.333333333333333 0  0.5333333333333332 -1.333333333333333 0  0.6666666666666665 -1.333333333333333 0  0.7999999999999998 -1.333333333333333 0  0.9333333333333331 -1.333333333333333 0  1.066666666666667 -1.333333333333333 0  1.2 -1.333333333333333 0  1.333333333333333 -1.333333333333333 0  1.466666666666667 -1.333333333333333 0  1.6 -1.333333333333333 0  1.733333333333333 -1.333333333333333 0  1.866666666666667 -1.333333333333333 0  2 -1.333333333333333 0  -2 -1.2 0  -1.866666666666667 -1.2 0  -1.733333333333333 -1.2 0  -1.6 -1.2 0  -1.466666666666667 -1.2 0  -1.333333333333333 -1.2 0  -1.2 -1.2 0  -1.066666666666667 -1.2 0  -0.9333333333333333 -1.2 0  -0.8 -1.2 0  -0.6666666666666667 -1.2 0  -0.5333333333333334 -1.2 0  -0.3999999999999999 -1.2 0  -0.2666666666666666 -1.2 0  -0.1333333333333333 -1.2 0  0 -1.2 0  0.1333333333333333 -1.2 0  0.2666666666666666 -1.2 0  0.3999999999999999 -1.2 0  0.5333333333333332 -1.2 0  0.6666666666666665 -1.2 0  0.7999999999999998 -1.2 0  0.9333333333333331 -1.2 0  1.066666666666667 -1.2 0  1.2 -1.2 0  1.333333333333333 -1.2 0  1.466666666666667 -1.2 0  1.6 -1.2 0  1.733333333333333 -1.2 0  1.866666666666667 -1.2 0  2 -1.2 0  -2 -1.066666666666667 0  -1.866666666666667 -1.066666666666667 0  -1.733333333333333 -1.066666666666667 0  -1.6 -1.066666666666667 0  -1.466666666666667 -1.066666666666667 0  -1.333333333333333 -1.066666666666667 0  -1.2 -1.066666666666667 0  -1.066666666666667 -1.066666666666667 0  -0.9333333333333333 -1.066666666666667 0  -0.8 -1.066666666666667 0  -0.6666666666666667 -1.066666666666667 0  -0.5333333333333334 -1.066666666666667 0  -0.3999999999999999 -1.066666666666667 0  -0.2666666666666666 -1.066666666666667 0  -0.1333333333333333 -1.066666666666667 0  0 -1.066666666666667 0  0.1333333333333333 -1.066666666666667 0  0.2666666666666666 -1.066666666666667 0  0.3999999999999999 -1.066666666666667 0  0.5333333333333332 -1.066666666666667 0  0.6666666666666665 -1.066666666666667 0  0.7999999999999998 -1.066666666666667 0  0.9333333333333331 -1.066666666666667 0  1.066666666666667 -1.066666666666667 0  1.2 -1.066666666666667 0  1.333333333333333 -1.066666666666667 0  1.466666666666667 -1.066666666666667 0  1.6 -1.066666666666667 0  1.733333333333333 -1.066666666666667 0  1.866666666666667 -1.066666666666667 0  2 -1.066666666666667 0  -2 -0.9333333333333333 0  -1.866666666666667 -0.9333333333333333 0  -1.733333333333333 -0.9333333333333333 0  -1.6 -0.9333333333333333 0  -1.466666666666667 -0.9333333333333333 0  -1.333333333333333 -0.9333333333333333 0  -1.2 -0.9333333333333333 0  -1.066666666666667 -0.9333333333333333 0  -0.9333333333333333 -0.9333333333333333 0  -0.8 -0.9333333333333333 0  -0.6666666666666667 -0.9333333333333333 0  -0.5333333333333334 -0.9333333333333333 0  -0.3999999999999999 -0.9333333333333333 0  -0.2666666666666666 -0.9333333333333333 0  -0.1333333333333333 -0.9333333333333333 0  0 -0.9333333333333333 0  0.1333333333333333 -0.9333333333333333 0  0.2666666666666666 -0.9333333333333333 0  0.3999999999999999 -0.9333333333333333 0  0.5333333333333332 -0.9333333333333333 0  0.6666666666666665 -0.9333333333333333 0  0.7999999999999998 -0.9333333333333333 0  0.9333333333333331 -0.9333333333333333 0  1.066666666666667 -0.9333333333333333 0  1.2 -0.9333333333333333 0  1.333333333333333 -0.9333333333333333 0  1.466666666666667 -0.9333333333333333 0  1.6 -0.9333333333333333 0  1.733333333333333 -0.9333333333333333 0  1.866666666666667 -0.9333333333333333 0  2 -0.9333333333333333 0  -2 -0.8 0  -1.866666666666667 -0.8 0  -1.733333333333333 -0.8 0  -1.6 -0.8 0  -1.466666666666667 -0.8 0  -1.333333333333333 -0.8 0  -1.2 -0.8 0  -1.066666666666667 -0.8 0  -0.9333333333333333 -0.8 0  -0.8 -0.8 0  -0.6666666666666667 -0.8 0  -0.5333333333333334 -0.8 0  -0.3999999999999999 -0.8 0  -0.2666666666666666 -0.8 0  -0.1333333333333333 -0.8 0  0 -0.8 0  0.1333333333333333 -0.8 0  0.2666666666666666 -0.8 0  0.3999999999999999 -0.8 0  0.5333333333333332 -0.8 0  0.6666666666666665 -0.8 0  0.7999999999999998 -0.8 0  0.9333333333333331 -0.8 0  1.066666666666667 -0.8 0  1.2 -0.8 0  1.333333333333333 -0.8 0  1.466666666666667 -0.8 0  1.6 -0.8 0  1.733333333333333 -0.8 0  1.866666666666667 -0.8 0  2 -0.8 0  -2 -0.6666666666666667 0  -1.866666666666667 -0.
[...]
<PointData  Scalars="f_578"> 
<DataArray  type="Float64"  Name="f_578"  format="ascii">0.0000000000000000e+00  0.0000000000000000e+00  0.0000000000000000e+00  0.0000000000000000e+00  0.0000000000000000e+00  0.0000000000000000e+00  0.0000000000000000e+00  0.0000000000000000e+00  0.0000000000000000e+00  0.0000000000000000e+00  0.0000000000000000e+00  0.0000000000000000e+00  0.0000000000000000e+00  0.0000000000000000e+00  0.0000000000000000e+00  0.0000000000000000e+00  0.0000000000000000e+00  0.0000000000000000e+00  0.0000000000000000e+00  0.0000000000000000e+00  0.0000000000000000e+00  0.0000000000000000e+00  0.0000000000000000e+00  0.0000000000000000e+00  0.0000000000000000e+00  0.0000000000000000e+00  0.0000000000000000e+00  0.0000000000000000e+00  0.0000000000000000e+00  0.0000000000000000e+00  0.0000000000000000e+00  0.0000000000000000e+00  3.6320301290491319e-05  7.6585477998044289e-05  1.2401217087056990e-04  1.8194299621300335e-04  2.5359838254414876e-04  3.4171183689800724e-04  4.4798539693081284e-04  5.7237220281413617e-04  7.1228214229557437e-04  8.6191784420291333e-04  1.0120484203977372e-03  1.1505484531078827e-03  1.2638916598162241e-03  1.3394678638986757e-03  1.3681858450814639e-03  1.3465507785202378e-03  1.2774759220123876e-03  1.1695326366332576e-03  1.0349408080911533e-03  8.8702760382236828e-04  7.3793944120831604e-04  5.9712642971545161e-04  4.7073629009380225e-04  3.6175308973846138e-04  2.7058037876537933e-04  1.9577679019067271e-04  1.3473634247593145e-04  8.4202438624675499e-05  4.0575812815593651e-05  0.0000000000000000e+00  0.0000000000000000e+00  7.6585477998044262e-05  1.6146541767456671e-04  2.6196774764956763e-04  3.8563960170290621e-04  5.3986841551491099e-04  7.3114275969112181e-04  9.6384932525836193e-04  1.2386049980252806e-03  1.5503151075648464e-03  1.8864261608147776e-03  2.2261272968747479e-03  2.5413717005145970e-03  2.8003046111141922e-03  2.9728805223295665e-03  3.0373497738452474e-03  2.9854958097376813e-03  2.8246464844288248e-03  2.5756824146697466e-03  2.2678931095657050e-03  1.9326451544722425e-03  1.5978913323901397e-03  1.2847573308918418e-03  1.0064122855222173e-03  7.6869115363387846e-04  5.7166791825813629e-04  4.1146913297339236e-04  2.8186522747772807e-04  1.7542582213414093e-04  8.4202438624675512e-05  0.0000000000000000e+00  0.0000000000000000e+00  1.2401217087056990e-04  2.6196774764956763e-04  4.2680344148930352e-04  6.3203825926340699e-04  8.9131661939346205e-04  1.2172519067546817e-03  1.6193324765212647e-03  2.1007938894086553e-03  2.6546997221832259e-03  3.2600467621546518e-03  3.8794116334714113e-03  4.4601151808608261e-03  4.9404981146433553e-03  5.2612297062608684e-03  5.3789710190939822e-03  5.2776333558668866e-03  4.9726306594554915e-03  4.5063442872065622e-03  3.9369020070372110e-03  3.3248832173927811e-03  2.7224316395638268e-03  2.1671682554660746e-03  1.6809068669023811e-03  1.2716989061595215e-03  9.3740153322341457e-04  6.6935861859186913e-04  4.5539794724351265e-04  2.8186522747772807e-04  1.3473634247593145e-04  0.0000000000000000e+00  0.0000000000000000e+00  1.8194299621300335e-04  3.8563960170290621e-04  6.3203825926340688e-04  9.4358427075544934e-04  1.3438484077108815e-03  1.8559615459137159e-03  2.4993169516778907e-03  3.2841372464038573e-03  4.2040200591830839e-03  5.2276698985837481e-03  6.2926443196688478e-03  7.3054101328264799e-03  8.1518510460848546e-03  8.7191116831811417e-03  8.9236494683928459e-03  8.7349902275809087e-03  8.1845593199420166e-03  7.3555275136324835e-03  6.3588265553205662e-03  5.3060463066899495e-03  4.2888670215646650e-03  3.3692733041401609e-03  2.5794144806636373e-03  1.9272800737624649e-03  1.4043270319381010e-03  9.9248332588641763e-04  6.6935861859186902e-04  4.1146913297339236e-04  1.9577679019067271e-04  0.0000000000000000e+00  0.0000000000000000e+00  2.5359838254414882e-04  5.3986841551491088e-04  8.9131661939346161e-04  1.3438484077108812e-03  1.9368922942720659e-03  2.7116472273279943e-03  3.7063281666116646e-03  4.9472426376161970e-03  6.4351482197456938e-03  8.1282487644765648e-03  9.9267400403163092e-03  1.1667978851123528e-02  1.3142693079762234e-02  1.4136683927286132e-02  1.4488622793215663e-02  1.4140650094934584e-02  1.3156925042951524e-02  1.1700721719164517e-02  9.9828153704449064e-03  8.2062589789171948e-03  6.5283077894631924e-03  5.0463492485349169e-03  3.8027389380989297e-03  2.7990176792173868e-03  2.0115603051086865e-03  1.4043270319381010e-03  9.3740153322341446e-04  5.7166791825813629e-04  2.7058037876537933e-04  0.0000000000000000e+00  0.0000000000000000e+00  3.4171183689800741e-04  7.3114275969112181e-04  1.2172519067546817e-03  1.8559615459137156e-03  2.7116472273279939e-03  3.8559457450901332e-03  5.3617179749616863e-03  7.2893325671730758e-03  9.6627075483926624e-03  1.2435445082656187e-02  1.5454737761366692e-02  1.8441583055256800e-02  2.1012644313519128e-02  2.2759159752917424e-02  2.3366729108315758e-02  2.2724239693063426e-02  2.0963424037055770e-02  1.8406966582789008e-02  1.5456609267856115e-02  1.2480303099193679e-02  9.7429691397631722e-03  7.3901965087813989e-03  5.4680511534500363e-03  3.9562471459252055e-03  2.7990176792173889e-03  1.9272800737624659e-03  1.2716989061595221e-03  7.6869115363387901e-04  3.6175308973846154e-04  0.0000000000000000e+00  0.0000000000000000e+00  4.4798539693081284e-04  9.6384932525836139e-04  1.6193324765212634e-03  2.4993169516778885e-03  3.7063281666116629e-03  5.3617179749616837e-03  7.5997222357603979e-03  1.0548289989051475e-02  1.4289130569533671e-02  1.8792762352260409e-02  2.3838491430969246e-02  2.8955551687765032e-02  3.3444520965325193e-02  3.6524242843916400e-02  3.7579245902072525e-02  3.6394134419012555e-02  3.3238557468200168e-02  2.8750906590919986e-02  2.3696666715102649e-02  1.8738704098488011e-02  1.4314232914820712e-02  1.0626428911398625e-02  7.7027724922848354e-03  5.4680511534500346e-03  3.8027389380989305e-03  2.5794144806636377e-03  1.6809068669023809e-03  1.0064122855222173e-03  4.7073629009380225e-04  0.0000000000000000e+00  0.0000000000000000e+00  5.7237220281413596e-04  1.2386049980252802e-03  2.1007938894086536e-03  3.2841372464038551e-03  4.9472426376161935e-03  7.2893325671730706e-03  1.0548289989051475e-02  1.4977665839172163e-02  2.0784317632756920e-02  2.8009483019199474e-02  3.6361109688281171e-02  4.5064297935594827e-02  5.2860390803364091e-02  5.8272676696370797e-02  6.0107037640531095e-02  5.7946430479383366e-02  5.2331609515208724e-02  4.4509002696257051e-02  3.5920650999682648e-02  2.7744795878541229e-02  2.0683847351264280e-02  1.4992883394232595e-02  1.0626428911398618e-02  7.3901965087813902e-03  5.0463492485349126e-03  3.3692733041401578e-03  2.1671682554660733e-03  1.2847573308918407e-03  5.9712642971545128e-04  0.0000000000000000e+00  0.0000000000000000e+00  7.1228214229557437e-04  1.5503151075648464e-03  2.6546997221832246e-03  4.2040200591830813e-03  6.4351482197456886e-03  9.6627075483926572e-03  1.4289130569533667e-02  2.0784317632756920e-02  2.9596038269710200e-02  4.0944240467463630e-02  5.4492368257764739e-02  6.9010498529020303e-02  8.2298780728186097e-02  9.1646534078953873e-02  9.4803277267594549e-02  9.0977291073406394e-02  8.1207331703743071e-02  6.7846870300381917e-02  5.3536000492580033e-02  4.0315594916279639e-02  2.9275610423410935e-02  2.0683847351264294e-02  1.4314232914820705e-02  9.7429691397631617e-03  6.5283077894631890e-03  4.2888670215646624e-03  2.7224316395638255e-03  1.5978913323901397e-03  7.3793944120831582e-04  0.0000000000000000e+00  0.0000000000000000e+00  8.6191784420291311e-04  1.8864261608147774e-03  3.2600467621546505e-03  5.2276698985837446e-03  8.1282487644765613e-03  1.2435445082656180e-02  1.8792762352260406e-02  2.8009483019199484e-02  4.0944240467463630e-02  5.8172745977534072e-02  7.9392661520734875e-02  1.0274665755568482e-01  1.2456983497029490e-01  1.4013446606350230e-01  1.4541480386006497e-01  1.3897136595895176e-01  1.2267141980434053e-01  1.0071598539607858e-01  7.7706616532317030e-02  5.7033015338596262e-02  4.0315594916279653e-02  2.7744795878541246e-02  1.8738704098488004e-02  1.2480303099193671e-02  8.2062589789171983e-03  5.3060463066899512e-03  3.3248832173927816e-03  1.9326451544722434e-03  8.8702760382236838e-04  0.0000000000000000e+00  0.0000000000000000e+00  1.0120484203977377e-03  2.2261272968747484e-03  3.8794116334714096e-03  6.2926443196688435e-03  9.9267400403163075e-03  1.5454737761366686e-02  2.3838491430969239e-02  3.6361109688281171e-02  5.4492368257764739e-02  7.9392661520734847e-02  1.1093042739908526e-01  1.4647234119028596e-01  1.8030876056587269e-01  2.0476976196988966e-01  2.1317038766011778e-01  2.0306393142765811e-01  1.7752706809312377e-01  1.4349878125731338e-01  1.0845753279577612e-01  7.7706616532317016e-02  5.3536000492580033e-02  3.5920650999682668e-02  2.3696666715102659e-02  1.5456609267856110e-02  9.9828153704449116e-03  6.3588265553205696e-03  3.9369020070372162e-03  2.2678931095657081e-03  1.0349408080911541e-03  0.0000000000000000e+00  0.0000000000000000e+00  1.1505484531078832e-03  2.5413717005145979e-03  4.4601151808608252e-03  7.3054101328264755e-03  1.1667978851123518e-02  1.8441583055256790e-02  2.8955551687765035e-02  4.5064297935594827e-02  6.9010498529020317e-02  1.0274665755568478e-01  1.4647234119028590e-01  1.9672213206243677e-01  2.4531759544219561e-01  2.8089229685382328e-01  2.9333254633657657e-01  2.7883238273860345e-01  2.4196284677089522e-01  1.9314220755031983e-01  1.4349878125731352e-01  1.0071598539607869e-01  6.7846870300382001e-02  4.4509002696257120e-02  2.8750906590920011e-02  1.8406966582789015e-02  1.1700721719164529e-02  7.3555275136324930e-03  4.5063442872065700e-03  2.5756824146697505e-03  1.1695326366332590e-03  0.0000000000000000e+00  0.0000000000000000e+00  1.2638916598162247e-03  2.8003046111141935e-03  4.9404981146433545e-03  8.1518510460848476e-03  1.3142693079762222e-02  2.1012644313519107e-02  3.3444520965325165e-02  5.2860390803364028e-02  8.2298780728186027e-02  1.2456983497029482e-01  1.8030876056587267e-01  2.4531759544219545e-01  3.0896775902886447e-01  3.5608347910371363e-01  3.7291990134225950e-01  3.5414775519180003e-01  3.0581878673024415e-01  2.4196284677089511e-01  1.7752706809312380e-01  1.2267141980434058e-01  8.1207331703743127e-02  5.2331609515208787e-02  3.3238557468200175e-02  2.0963424037055759e-02  1.3156925042951533e-02  8.1845593199420235e-03  4.9726306594554967e-03  2.8246464844288270e-03  1.2774759220123887e-03  0.0000000000000000e+00  0.0000000000000000e+00  1.3394678638986768e-03  2.9728805223295683e-03  5.2612297062608684e-03  8.7191116831811365e-03  1.4136683927286122e-02  2.2759159752917400e-02  3.6524242843916380e-02  5.8272676696370748e-02  9.1646534078953776e-02  1.4013446606350219e-01  2.0476976196988958e-01  2.8089229685382316e-01  3.5608347910371363e-01  4.1225950090405344e-01  4.3280121233322882e-01  4.1106872000657207e-01  3.5414775519180008e-01  2.7883238273860333e-01  2.0306393142765811e-01  1.3897136595895176e-01  9.0977291073406436e-02  5.7946430479383408e-02  3.6394134419012521e-02  2.2724239693063402e-02  1.4140650094934582e-02  8.7349902275809122e-03  5.2776333558668892e-03  2.9854958097376822e-03  1.3465507785202385e-03  0.0000000000000000e+00  0.0000000000000000e+00  1.3681858450814645e-03  3.0373497738452487e-03  5.3789710190939814e-03  8.9236494683928407e-03  1.4488622793215649e-02  2.3366729108315734e-02  3.7579245902072497e-02  6.0107037640531047e-02  9.4803277267594452e-02  1.4541480386006486e-01  2.1317038766011773e-01  2.9333254633657652e-01  3.7291990134225939e-01  4.3280121233322877e-01  4.5519800455243625e-01  4.3280121233322894e-01  3.7291990134225950e-01  2.9333254633657641e-01  2.1317038766011773e-01  1.4541480386006492e-01  9.4803277267594535e-02  6.0107037640531137e-02  3.7579245902072497e-02  2.3366729108315724e-02  1.4488622793215649e-02  8.9236494683928424e-03  5.3789710190939805e-03  3.0373497738452474e-03  1.3681858450814641e-03  0.0000000000000000e+00  0.0000000000000000e+00  1.3465507785202376e-03  2.9854958097376809e-03  5.2776333558668823e-03  8.7349902275809035e-03  1.4140650094934573e-02  2.2724239693063402e-02  3.6394134419012521e-02  5.7946430479383332e-02  9.0977291073406380e-02  1.3897136595895165e-01  2.0306393142765797e-01  2.7883238273860333e-01  3.5414775519180003e-01  4.1106872000657219e-01  4.3280121233322877e-01  4.1225950090405333e-01  3.5608347910371357e-01  2.8089229685382283e-01  2.0476976196988947e-01  1.4013446606350222e-01  9.1646534078953845e-02  5.8272676696370825e-02  3.6524242843916380e-02  2.2759159752917386e-02  1.4136683927286122e-02  8.7191116831811365e-03  5.2612297062608667e-03  2.9728805223295657e-03  1.3394678638986757e-03  0.0000000000000000e+00  0.0000000000000000e+00  1.2774759220123869e-03  2.8246464844288240e-03  4.9726306594554898e-03  8.1845593199420131e-03  1.3156925042951519e-02  2.0963424037055745e-02  3.3238557468200154e-02  5.2331609515208696e-02  8.1207331703743002e-02  1.2267141980434049e-01  1.7752706809312371e-01  2.4196284677089511e-01  3.0581878673024404e-01  3.5414775519180014e-01  3.7291990134225950e-01  3.5608347910371346e-01  3.0896775902886436e-01  2.4531759544219528e-01  1.8030876056587258e-01  1.2456983497029486e-01  8.2298780728186083e-02  5.2860390803364091e-02  3.3444520965325159e-02  2.1012644313519093e-02  1.3142693079762222e-02  8.1518510460848476e-03  4.9404981146433536e-03  2.8003046111141914e-03  1.2638916598162236e-03  0.0000000000000000e+00  0.0000000000000000e+00  1.1695326366332568e-03  2.5756824146697449e-03  4.5063442872065596e-03  7.3555275136324774e-03  1.1700721719164506e-02  1.8406966582788994e-02  2.8750906590919969e-02  4.4509002696257030e-02  6.7846870300381876e-02  1.0071598539607853e-01  1.4349878125731330e-01  1.9314220755031972e-01  2.4196284677089505e-01  2.7883238273860333e-01  2.9333254633657641e-01  2.8089229685382300e-01  2.4531759544219539e-01  1.9672213206243669e-01  1.4647234119028588e-01  1.0274665755568475e-01  6.9010498529020289e-02  4.5064297935594827e-02  2.8955551687764987e-02  1.8441583055256765e-02  1.1667978851123509e-02  7.3054101328264695e-03  4.4601151808608217e-03  2.5413717005145949e-03  1.1505484531078821e-03  0.0000000000000000e+00  0.0000000000000000e+00  1.0349408080911524e-03  2.2678931095657033e-03  3.9369020070372067e-03  6.3588265553205601e-03  9.9828153704448978e-03  1.5456609267856095e-02  2.3696666715102632e-02  3.5920650999682613e-02  5.3536000492579984e-02  7.7706616532316974e-02  1.0845753279577605e-01  1.4349878125731341e-01  1.7752706809312377e-01  2.0306393142765802e-01  2.1317038766011778e-01  2.0476976196988952e-01  1.8030876056587253e-01  1.4647234119028582e-01  1.1093042739908524e-01  7.9392661520734847e-02  5.4492368257764739e-02  3.6361109688281192e-02  2.3838491430969215e-02  1.5454737761366666e-02  9.9267400403162953e-03  6.2926443196688409e-03  3.8794116334714087e-03  2.2261272968747462e-03  1.0120484203977368e-03  0.0000000000000000e+00  0.0000000000000000e+00  8.8702760382236697e-04  1.9326451544722399e-03  3.3248832173927768e-03  5.3060463066899434e-03  8.2062589789171862e-03  1.2480303099193665e-02  1.8738704098487994e-02  2.7744795878541208e-02  4.0315594916279604e-02  5.7033015338596234e-02  7.7706616532316988e-02  1.0071598539607859e-01  1.2267141980434050e-01  1.3897136595895168e-01  1.4541480386006492e-01  1.4013446606350222e-01  1.2456983497029482e-01  1.0274665755568471e-01  7.9392661520734820e-02  5.8172745977534100e-02  4.0944240467463637e-02  2.8009483019199491e-02  1.8792762352260389e-02  1.2435445082656165e-02  8.1282487644765578e-03  5.2276698985837438e-03  3.2600467621546501e-03  1.8864261608147763e-03  8.6191784420291278e-04  0.0000000000000000e+00  0.0000000000000000e+00  7.3793944120831485e-04  1.5978913323901375e-03  2.7224316395638229e-03  4.2888670215646581e-03  6.5283077894631864e-03  9.7429691397631635e-03  1.4314232914820700e-02  2.0683847351264262e-02  2.9275610423410908e-02  4.0315594916279604e-02  5.3536000492580026e-02  6.7846870300381945e-02  8.1207331703743016e-02  9.0977291073406338e-02  9.4803277267594466e-02  9.1646534078953776e-02  8.2298780728186013e-02  6.9010498529020248e-02  5.4492368257764719e-02  4.0944240467463630e-02  2.9596038269710207e-02  2.0784317632756937e-02  1.4289130569533659e-02  9.6627075483926485e-03  6.4351482197456877e-03  4.2040200591830805e-03  2.6546997221832246e-03  1.5503151075648453e-03  7.1228214229557393e-04  0.0000000000000000e+00  0.0000000000000000e+00  5.9712642971545085e-04  1.2847573308918401e-03  2.1671682554660712e-03  3.3692733041401561e-03  5.0463492485349126e-03  7.3901965087813937e-03  1.0626428911398618e-02  1.4992883394232574e-02  2.0683847351264269e-02  2.7744795878541222e-02  3.5920650999682648e-02  4.4509002696257072e-02  5.2331609515208717e-02  5.7946430479383325e-02  6.0107037640531075e-02  5.8272676696370762e-02  5.2860390803364049e-02  4.5064297935594792e-02  3.6361109688281171e-02  2.8009483019199484e-02  2.0784317632756923e-02  1.4977665839172177e-02  1.0548289989051475e-02  7.2893325671730663e-03  4.9472426376161926e-03  3.2841372464038547e-03  2.1007938894086536e-03  1.2386049980252797e-03  5.7237220281413563e-04  0.0000000000000000e+00  0.0000000000000000e+00  4.7073629009380171e-04  1.0064122855222158e-03  1.6809068669023787e-03  2.5794144806636347e-03  3.8027389380989262e-03  5.4680511534500320e-03  7.7027724922848276e-03  1.0626428911398606e-02  1.4314232914820689e-02  1.8738704098487990e-02  2.3696666715102635e-02  2.8750906590919965e-02  3.3238557468200126e-02  3.6394134419012493e-02  3.7579245902072456e-02  3.6524242843916338e-02  3.3444520965325124e-02  2.8955551687764973e-02  2.3838491430969198e-02  1.8792762352260385e-02  1.4289130569533657e-02  1.0548289989051473e-02  7.5997222357603884e-03  5.3617179749616776e-03  3.7063281666116586e-03  2.4993169516778868e-03  1.6193324765212617e-03  9.6384932525836041e-04  4.4798539693081225e-04  0.0000000000000000e+00  0.0000000000000000e+00  3.6175308973846083e-04  7.6869115363387738e-04  1.2716989061595193e-03  1.9272800737624620e-03  2.7990176792173842e-03  3.9562471459252003e-03  5.4680511534500277e-03  7.3901965087813833e-03  9.7429691397631531e-03  1.2480303099193657e-02  1.5456609267856086e-02  1.8406966582788984e-02  2.0963424037055724e-02  2.2724239693063374e-02  2.3366729108315699e-02  2.2759159752917365e-02  2.1012644313519069e-02  1.8441583055256752e-02  1.5454737761366655e-02  1.2435445082656160e-02  9.6627075483926451e-03  7.2893325671730654e-03  5.3617179749616741e-03  3.8559457450901245e-03  2.7116472273279891e-03  1.8559615459137128e-03  1.2172519067546786e-03  7.3114275969112007e-04  3.4171183689800665e-04  0.0000000000000000e+00  0.0000000000000000e+00  2.7058037876537901e-04  5.7166791825813531e-04  9.3740153322341294e-04  1.4043270319380986e-03  2.0115603051086835e-03  2.7990176792173846e-03  3.8027389380989253e-03  5.0463492485349048e-03  6.5283077894631803e-03  8.2062589789171844e-03  9.9828153704448960e-03  1.1700721719164510e-02  1.3156925042951515e-02  1.4140650094934565e-02  1.4488622793215632e-02  1.4136683927286101e-02  1.3142693079762201e-02  1.1667978851123499e-02  9.9267400403162901e-03  8.1282487644765526e-03  6.4351482197456834e-03  4.9472426376161926e-03  3.7063281666116581e-03  2.7116472273279887e-03  1.9368922942720624e-03  1.3438484077108791e-03  8.9131661939346042e-04  5.3986841551490979e-04  2.5359838254414844e-04  0.0000000000000000e+00  0.0000000000000000e+00  1.9577679019067243e-04  4.1146913297339182e-04  6.6935861859186805e-04  9.9248332588641589e-04  1.4043270319380986e-03  1.9272800737624627e-03  2.5794144806636343e-03  3.3692733041401522e-03  4.2888670215646563e-03  5.3060463066899426e-03  6.3588265553205601e-03  7.3555275136324800e-03  8.1845593199420114e-03  8.7349902275809001e-03  8.9236494683928302e-03  8.7191116831811209e-03  8.1518510460848320e-03  7.3054101328264591e-03  6.2926443196688340e-03  5.2276698985837394e-03  4.2040200591830787e-03  3.2841372464038547e-03  2.499316951677886