<?xml version="1.0"?>
<VTKFile type="UnstructuredGrid"  version="0.1"  >
<UnstructuredGrid>
<Piece  NumberOfPoints="961" NumberOfCells="1800">
<Points>
<DataArray  type="Float64"  NumberOfComponents="3"  format="ascii">-2 -2 0  -1.866666666666667 -2 0  -1.733333333333333 -2 0  -1.6 -2 0  -1.466666666666667 -2 0  -1.333333333333333 -2 0  -1.2 -2 0  -1.066666666666667 -2 0  -0.9333333333333333 -2 0  -0.8 -2 0  -0.6666666666666667 -2 0  -0.5333333333333334 -2 0  -0.3999999999999999 -2 0  -0.2666666666666666 -2 0  -0.1333333333333333 -2 0  0 -2 0  0.1333333333333333 -2 0  0.2666666666666666 -2 0  0.3999999999999999 -2 0  0.5333333333333332 -2 0  0.6666666666666665 -2 0  0.7999999999999998 -2 0  0.9333333333333331 -2 0  1.066666666666667 -2 0  1.2 -2 0  1.333333333333333 -2 0  1.466666666666667 -2 0  1.6 -2 0  1.733333333333333 -2 0  1.866666666666667 -2 0  2 -2 0  -2 -1.866666666666667 0  -1.866666666666667 -1.866666666666667 0  -1.733333333333333 -1.866666666666667 0  -1.6 -1.866666666666667 0  -1.466666666666667 -1.866666666666667 0  -1.333333333333333 -1.866666666666667 0  -1.2 -1.866666666666667 0  -1.066666666666667 -1.866666666666667 0  -0.9333333333333333 -1.866666666666667 0  -0.8 -1.866666666666667 0  -0.6666666666666667 -1.866666666666667 0  -0.5333333333333334 -1.866666666666667 0  -0.3999999999999999 -1.866666666666667 0  -0.2666666666666666 -1.866666666666667 0  -0.1333333333333333 -1.866666666666667 0  0 -1.866666666666667 0  0.1333333333333333 -1.866666666666667 0  0.2666666666666666 -1.866666666666667 0  0.3999999999999999 -1.866666666666667 0  0.5333333333333332 -1.866666666666667 0  0.6666666666666665 -1.866666666666667 0  0.7999999999999998 -1.866666666666667 0  0.9333333333333331 -1.866666666666667 0  1.066666666666667 -1.866666666666667 0  1.2 -1.866666666666667 0  1.333333333333333 -1.866666666666667 0  1.466666666666667 -1.866666666666667 0  1.6 -1.866666666666667 0  1.733333333333333 -1.866666666666667 0  1.866666666666667 -1.866666666666667 0  2 -1.866666666666667 0  -2 -1.733333333333333 0  -1.866666666666667 -1.733333333333333 0  -1.733333333333333 -1.733333333333333 0  -1.6 -1.733333333333333 0  -1.466666666666667 -1.733333333333333 0  -1.333333333333333 -1.733333333333333 0  -1.2 -1.733333333333333 0  -1.066666666666667 -1.733333333333333 0  -0.9333333333333333 -1.733333333333333 0  -0.8 -1.733333333333333 0  -0.6666666666666667 -1.733333333333333 0  -0.5333333333333334 -1.733333333333333 0  -0.3999999999999999 -1.733333333333333 0  -0.2666666666666666 -1.733333333333333 0  -0.1333333333333333 -1.733333333333333 0  0 -1.733333333333333 0  0.1333333333333333 -1.733333333333333 0  0.2666666666666666 -1.733333333333333 0  0.3999999999999999 -1.733333333333333 0  0.5333333333333332 -1.733333333333333 0  0.6666666666666665 -1.733333333333333 0  0.7999999999999998 -1.733333333333333 0  0.9333333333333331 -1.733333333333333 0  1.066666666666667 -1.733333333333333 0  1.2 -1.733333333333333 0  1.333333333333333 -1.733333333333333 0  1.466666666666667 -1.733333333333333 0  1.6 -1.733333333333333 0  1.733333333333333 -1.733333333333333 0  1.866666666666667 -1.733333333333333 0  2 -1.733333333333333 0  -2 -1.6 0  -1.866666666666667 -1.6 0  -1.733333333333333 -1.6 0  -1.6 -1.6 0  -1.466666666666667 -1.6 0  -1.333333333333333 -1.6 0  -1.2 -1.6 0  -1.066666666666667 -1.6 0  -0.9333333333333333 -1.6 0  -0.8 -1.6 0  -0.6666666666666667 -1.6 0  -0.5333333333333334 -1.6 0  -0.3999999999999999 -1.6 0  -0.2666666666666666 -1.6 0  -0.1333333333333333 -1.6 0  0 -1.6 0  0.1333333333333333 -1.6 0  0.2666666666666666 -1.6 0  0.3999999999999999 -1.6 0  0.5333333333333332 -1.6 0  0.6666666666666665 -1.6 0  0.7999999999999998 -1.6 0  0.9333333333333331 -1.6 0  1.066666666666667 -1.6 0  1.2 -1.6 0  1.333333333333333 -1.6 0  1.466666666666667 -1.6 0  1.6 -1.6 0  1.733333333333333 -1.6 0  1.866666666666667 -1.6 0  2 -1.6 0  -2 -1.466666666666667 0  -1.866666666666667 -1.466666666666667 0  -1.733333333333333 -1.466666666666667 0  -1.6 -1.466666666666667 0  -1.466666666666667 -1.466666666666667 0  -1.333333333333333 -1.466666666666667 0  -1.2 -1.466666666666667 0  -1.066666666666667 -1.466666666666667 0  -0.9333333333333333 -1.466666666666667 0  -0.8 -1.466666666666667 0  -0.6666666666666667 -1.466666666666667 0  -0.5333333333333334 -1.466666666666667 0  -0.3999999999999999 -1.466666666666667 0  -0.2666666666666666 -1.466666666666667 0  -0.1333333333333333 -1.466666666666667 0  0 -1.466666666666667 0  0.1333333333333333 -1.466666666666667 0  0.2666666666666666 -1.466666666666667 0  0.3999999999999999 -1.466666666666667 0  0.5333333333333332 -1.466666666666667 0  0.6666666666666665 -1.466666666666667 0  0.7999999999999998 -1.466666666666667 0  0.9333333333333331 -1.466666666666667 0  1.066666666666667 -1.466666666666667 0  1.2 -1.466666666666667 0  1.333333333333333 -1.466666666666667 0  1.466666666666667 -1.466666666666667 0  1.6 -1.466666666666667 0  1.733333333333333 -1.466666666666667 0  1.866666666666667 -1.466666666666667 0  2 -1.466666666666667 0  -2 -1.333333333333333 0  -1.866666666666667 -1.333333333333333 0  -1.733333333333333 -1.333333333333333 0  -1.6 -1.333333333333333 0  -1.466666666666667 -1.333333333333333 0  -1.333333333333333 -1.333333333333333 0  -1.2 -1.333333333333333 0  -1.066666666666667 -1.333333333333333 0  -0.9333333333333333 -1.333333333333333 0  -0.8 -1.333333333333333 0  -0.6666666666666667 -1.333333333333333 0  -0.5333333333333334 -1.333333333333333 0  -0.3999999999999999 -1.333333333333333 0  -0.2666666666666666 -1.333333333333333 0  -0.1333333333333333 -1.333333333333333 0  0 -1.333333333333333 0  0.1333333333333333 -1.333333333333333 0  0.2666666666666666 -1.333333333333333 0  0.3999999999999999 -1.333333333333333 0  0.5333333333333332 -1.333333333333333 0  0.6666666666666665 -1.333333333333333 0  0.7999999999999998 -1.333333333333333 0  0.9333333333333331 -1.333333333333333 0  1.066666666666667 -1.333333333333333 0  1.2 -1.333333333333333 0  1.333333333333333 -1.333333333333333 0  1.466666666666667 -1.333333333333333 0  1.6 -1.333333333333333 0  1.733333333333333 -1.333333333333333 0  1.866666666666667 -1.333333333333333 0  2 -1.333333333333333 0  -2 -1.2 0  -1.866666666666667 -1.2 0  -1.733333333333333 -1.2 0  -1.6 -1.2 0  -1.466666666666667 -1.2 0  -1.333333333333333 -1.2 0  -1.2 -1.2 0  -1.066666666666667 -1.2 0  -0.9333333333333333 -1.2 0  -0.8 -1.2 0  -0.6666666666666667 -1.2 0  -0.5333333333333334 -1.2 0  -0.3999999999999999 -1.2 0  -0.2666666666666666 -1.2 0  -0.1333333333333333 -1.2 0  0 -1.2 0  0.1333333333333333 -1.2 0  0.2666666666666666 -1.2 0  0.3999999999999999 -1.2 0  0.5333333333333332 -1.2 0  0.6666666666666665 -1.2 0  0.7999999999999998 -1.2 0  0.9333333333333331 -1.2 0  1.066666666666667 -1.2 0  1.2 -1.2 0  1.333333333333333 -1.2 0  1.466666666666667 -1.2 0  1.6 -1.2 0  1.733333333333333 -1.2 0  1.866666666666667 -1.2 0  2 -1.2 0  -2 -1.066666666666667 0  -1.866666666666667 -1.066666666666667 0  -1.733333333333333 -1.066666666666667 0  -1.6 -1.066666666666667 0  -1.466666666666667 -1.066666666666667 0  -1.333333333333333 -1.066666666666667 0  -1.2 -1.066666666666667 0  -1.066666666666667 -1.066666666666667 0  -0.9333333333333333 -1.066666666666667 0  -0.8 -1.066666666666667 0  -0.6666666666666667 -1.066666666666667 0  -0.5333333333333334 -1.066666666666667 0  -0.3999999999999999 -1.066666666666667 0  -0.2666666666666666 -1.066666666666667 0  -0.1333333333333333 -1.066666666666667 0  0 -1.066666666666667 0  0.1333333333333333 -1.066666666666667 0  0.2666666666666666 -1.066666666666667 0  0.3999999999999999 -1.066666666666667 0  0.5333333333333332 -1.066666666666667 0  0.6666666666666665 -1.066666666666667 0  0.7999999999999998 -1.066666666666667 0  0.9333333333333331 -1.066666666666667 0  1.066666666666667 -1.066666666666667 0  1.2 -1.066666666666667 0  1.333333333333333 -1.066666666666667 0  1.466666666666667 -1.066666666666667 0  1.6 -1.066666666666667 0  1.733333333333333 -1.066666666666667 0  1.866666666666667 -1.066666666666667 0  2 -1.066666666666667 0  -2 -0.9333333333333333 0  -1.866666666666667 -0.9333333333333333 0  -1.733333333333333 -0.9333333333333333 0  -1.6 -0.9333333333333333 0  -1.466666666666667 -0.9333333333333333 0  -1.333333333333333 -0.9333333333333333 0  -1.2 -0.9333333333333333 0  -1.066666666666667 -0.9333333333333333 0  -0.9333333333333333 -0.9333333333333333 0  -0.8 -0.9333333333333333 0  -0.6666666666666667 -0.9333333333333333 0  -0.5333333333333334 -0.9333333333333333 0  -0.3999999999999999 -0.9333333333333333 0  -0.2666666666666666 -0.9333333333333333 0  -0.1333333333333333 -0.9333333333333333 0  0 -0.9333333333333333 0  0.1333333333333333 -0.9333333333333333 0  0.2666666666666666 -0.9333333333333333 0  0.3999999999999999 -0.9333333333333333 0  0.5333333333333332 -0.9333333333333333 0  0.6666666666666665 -0.9333333333333333 0  0.7999999999999998 -0.9333333333333333 0  0.9333333333333331 -0.9333333333333333 0  1.066666666666667 -0.9333333333333333 0  1.2 -0.9333333333333333 0  1.333333333333333 -0.9333333333333333 0  1.466666666666667 -0.9333333333333333 0  1.6 -0.9333333333333333 0  1.733333333333333 -0.9333333333333333 0  1.866666666666667 -0.9333333333333333 0  2 -0.9333333333333333 0  -2 -0.8 0  -1.866666666666667 -0.8 0  -1.733333333333333 -0.8 0  -1.6 -0.8 0  -1.466666666666667 -0.8 0  -1.333333333333333 -0.8 0  -1.2 -0.8 0  -1.066666666666667 -0.8 0  -0.9333333333333333 -0.8 0  -0.8 -0.8 0  -0.6666666666666667 -0.8 0  -0.5333333333333334 -0.8 0  -0.3999999999999999 -0.8 0  -0.2666666666666666 -0.8 0  -0.1333333333333333 -0.8 0  0 -0.8 0  0.1333333333333333 -0.8 0  0.2666666666666666 -0.8 0  0.3999999999999999 -0.8 0  0.5333333333333332 -0.8 0  0.6666666666666665 -0.8 0  0.7999999999999998 -0.8 0  0.9333333333333331 -0.8 0  1.066666666666667 -0.8 0  1.2 -0.8 0  1.333333333333333 -0.8 0  1.466666666666667 -0.8 0  1.6 -0.8 0  1.733333333333333 -0.8 0  1.866666666666667 -0.8 0  2 -0.8 0  -2 -0.6666666666666667 0  -1.866666666666667 -0.
[...]
<PointData  Scalars="f_578"> 
<DataArray  type="Float64"  Name="f_578"  format="ascii">0.0000000000000000e+00  0.0000000000000000e+00  0.0000000000000000e+00  0.0000000000000000e+00  0.0000000000000000e+00  0.0000000000000000e+00  0.0000000000000000e+00  0.0000000000000000e+00  0.0000000000000000e+00  0.0000000000000000e+00  0.0000000000000000e+00  0.0000000000000000e+00  0.0000000000000000e+00  0.0000000000000000e+00  0.0000000000000000e+00  0.0000000000000000e+00  0.0000000000000000e+00  0.0000000000000000e+00  0.0000000000000000e+00  0.0000000000000000e+00  0.0000000000000000e+00  0.0000000000000000e+00  0.0000000000000000e+00  0.0000000000000000e+00  0.0000000000000000e+00  0.0000000000000000e+00  0.0000000000000000e+00  0.0000000000000000e+00  0.0000000000000000e+00  0.0000000000000000e+00  0.0000000000000000e+00  0.0000000000000000e+00  4.9202038552902810e-04  9.8903417596077478e-04  1.4941514408136640e-03  2.0089458203547349e-03  2.5326852998149873e-03  3.0617818647708261e-03  3.5894896862398457e-03  4.1059042826970373e-03  4.5983077208831677e-03  5.0518769242144995e-03  5.4507276114231359e-03  5.7792118927944506e-03  6.0233339696465849e-03  6.1721093594366717e-03  6.2186813954193069e-03  6.1610318779091794e-03  6.0021793353817569e-03  5.7498375681290636e-03  5.4155915115337181e-03  5.0137181901694179e-03  4.5598233264992792e-03  4.0694730395974387e-03  3.5569780437743072e-03  3.0344445540542962e-03  2.5111542170118866e-03  1.9932861875501333e-03  1.4839555194419692e-03  9.8351573430945668e-04  4.9005598909567026e-04  0.0000000000000000e+00  0.0000000000000000e+00  9.8903417596077413e-04  1.9877889484174378e-03  3.0030423500877110e-03  4.0382590213157085e-03  5.0921679705686245e-03  6.1576780487763612e-03  7.2212644915014400e-03  8.2629545317777983e-03  9.2570129621991643e-03  1.0173368841168363e-02  1.0979732679616463e-02  1.1644240626121396e-02  1.2138350135142074e-02  1.2439628729914819e-02  1.2534050922693227e-02  1.2417464417216719e-02  1.2096003181958076e-02  1.1585389437743836e-02  1.0909242269043362e-02  1.0096657750997849e-02  9.1794139715381997e-03  8.1891716776569760e-03  7.1549941830960518e-03  6.1014194314150923e-03  5.0472091637140783e-03  4.0047989165443738e-03  2.9803940898747950e-03  1.9746079690312161e-03  9.8351573430945668e-04  0.0000000000000000e+00  0.0000000000000000e+00  1.4941514408136631e-03  3.0030423500877097e-03  4.5376587322794532e-03  6.1038208184475530e-03  7.7000412042816163e-03  9.3158648844076913e-03  1.0930905956660991e-02  1.2514790065435218e-02  1.4028170437004755e-02  1.5424893942392690e-02  1.6655250722879839e-02  1.7670062560256133e-02  1.8425185130468265e-02  1.8885863150292712e-02  1.9030330005911224e-02  1.8852112588186514e-02  1.8360685508783395e-02  1.7580380890792953e-02  1.6547740652178414e-02  1.5307732735457573e-02  1.3909391939575083e-02  1.2401470268767834e-02  1.0828602941155407e-02  9.2283490722703150e-03  7.6292938130099091e-03  6.0502397923798325e-03  4.5003952660044597e-03  2.9803940898747946e-03  1.4839555194419689e-03  0.0000000000000000e+00  0.0000000000000000e+00  2.0089458203547341e-03  4.0382590213157059e-03  6.1038208184475496e-03  8.2144083068486605e-03  1.0368752563988710e-02  1.2553233250173363e-02  1.4740502627624198e-02  1.6889336824420068e-02  1.8945963299915120e-02  2.0846991515166516e-02  2.2523875444556557e-02  2.3908582676114235e-02  2.4939882911751175e-02  2.5569465278897630e-02  2.5767016390360779e-02  2.5523483203711818e-02  2.4852005554467094e-02  2.3786381121209225e-02  2.2377331813156102e-02  2.0687178510709871e-02  1.8783728098436796e-02  1.6734205083029492e-02  1.4599939413444868e-02  1.2432305320913221e-02  1.0270157340185916e-02  8.1387847762906841e-03  6.0502397923798299e-03  4.0047989165443720e-03  1.9932861875501329e-03  0.0000000000000000e+00  0.0000000000000000e+00  2.5326852998149851e-03  5.0921679705686210e-03  7.7000412042816128e-03  1.0368752563988708e-02  1.3097783670290603e-02  1.5870616931146227e-02  1.8652866946795119e-02  2.1391975679480001e-02  2.4018819707810203e-02  2.6451427046870771e-02  2.8600742372258684e-02  3.0378037996475697e-02  3.1703206519730326e-02  3.2512881956624572e-02  3.2767215902221432e-02  3.2454249356218379e-02  3.1591171884984538e-02  3.0222277136207999e-02  2.8413982106278341e-02  2.6247739768618144e-02  2.3811938419568902e-02  2.1193909385220429e-02  1.8472988417453241e-02  1.5715272235695004e-02  1.2970371107484795e-02  1.0270157340185916e-02  7.6292938130099065e-03  5.0472091637140783e-03  2.5111542170118857e-03  0.0000000000000000e+00  0.0000000000000000e+00  3.0617818647708235e-03  6.1576780487763560e-03  9.3158648844076826e-03  1.2553233250173353e-02  1.5870616931146220e-02  1.9248946312356567e-02  2.2646797905227820e-02  2.5999854843643283e-02  2.9222747249312328e-02  3.2213564292753849e-02  3.4861006540043121e-02  3.7053705158887083e-02  3.8690753481949211e-02  3.9692099367889713e-02  4.0007267484620780e-02  3.9621013852090874e-02  3.8554970365299153e-02  3.6865021324608241e-02  3.4634896214151063e-02  3.1967074292619399e-02  2.8972437403336444e-02  2.5760130139613709e-02  2.2428837735891147e-02  1.9060280375211035e-02  1.5715272235695011e-02  1.2432305320913226e-02  9.2283490722703167e-03  6.1014194314150958e-03  3.0344445540542967e-03  0.0000000000000000e+00  0.0000000000000000e+00  3.5894896862398414e-03  7.2212644915014270e-03  1.0930905956660976e-02  1.4740502627624177e-02  1.8652866946795098e-02  2.2646797905227802e-02  2.6673959233666684e-02  3.0658018482888943e-02  3.4496658244401450e-02  3.8066871722467879e-02  4.1233564371272083e-02  4.3860928708484223e-02  4.5825437883480591e-02  4.7028774085270307e-02  4.7408750043916155e-02  4.6946428954771253e-02  4.5668221345589108e-02  4.3642617807439069e-02  4.0972177058962611e-02  3.7782176532517212e-02  3.4207761750196200e-02  3.0381441405137544e-02  2.6422434996201827e-02  2.2428837735891140e-02  1.8472988417453238e-02  1.4599939413444863e-02  1.0828602941155403e-02  7.1549941830960492e-03  3.5569780437743064e-03  0.0000000000000000e+00  0.0000000000000000e+00  4.1059042826970312e-03  8.2629545317777862e-03  1.2514790065435197e-02  1.6889336824420041e-02  2.1391975679479976e-02  2.5999854843643248e-02  3.0658018482888929e-02  3.5278137963510106e-02  3.9740618557378600e-02  4.3900639499589861e-02  4.7598227630530052e-02  5.0671788586696992e-02  5.2973738795742555e-02  5.4386195363272570e-02  5.4834323396538848e-02  5.4295092941103025e-02  5.2799899214350229e-02  5.0430603510928956e-02  4.7309764829486782e-02  4.3586823593889282e-02  3.9422527215023408e-02  3.4973878986904600e-02  3.0381441405137537e-02  2.5760130139613695e-02  2.1193909385220425e-02  1.6734205083029478e-02  1.2401470268767823e-02  8.1891716776569708e-03  4.0694730395974361e-03  0.0000000000000000e+00  0.0000000000000000e+00  4.5983077208831616e-03  9.2570129621991504e-03  1.4028170437004737e-02  1.8945963299915089e-02  2.4018819707810172e-02  2.9222747249312297e-02  3.4496658244401429e-02  3.9740618557378593e-02  4.4817967478414843e-02  4.9562032949542881e-02  5.3787645229771128e-02  5.7306850280682414e-02  5.9947271042875540e-02  6.1570701595434887e-02  6.2089041461004628e-02  6.1474824252330466e-02  5.9764429491743792e-02  5.7053413983275965e-02  5.3484891986894434e-02  4.9233111934771825e-02  4.4485014924987985e-02  3.9422527215023428e-02  3.4207761750196200e-02  2.8972437403336430e-02  2.3811938419568905e-02  1.8783728098436793e-02  1.3909391939575074e-02  9.1794139715381962e-03  4.5598233264992783e-03  0.0000000000000000e+00  0.0000000000000000e+00  5.0518769242144917e-03  1.0173368841168351e-02  1.5424893942392668e-02  2.0846991515166488e-02  2.6451427046870753e-02  3.2213564292753828e-02  3.8066871722467865e-02  4.3900639499589861e-02  4.9562032949542881e-02  5.4863384926542913e-02  5.9595052219686417e-02  6.3543237013661075e-02  6.6511044784997378e-02  6.8339997825638071e-02  6.8928609481374609e-02  6.8244752147711765e-02  6.6329516332308255e-02  6.3291858012423596e-02  5.9295120765606876e-02  5.4537980191717080e-02  4.9233111934771839e-02  4.3586823593889316e-02  3.7782176532517205e-02  3.1967074292619378e-02  2.6247739768618147e-02  2.0687178510709874e-02  1.5307732735457574e-02  1.0096657750997854e-02  5.0137181901694196e-03  0.0000000000000000e+00  0.0000000000000000e+00  5.4507276114231316e-03  1.0979732679616456e-02  1.6655250722879818e-02  2.2523875444556526e-02  2.8600742372258656e-02  3.4861006540043100e-02  4.1233564371272048e-02  4.7598227630530017e-02  5.3787645229771093e-02  5.9595052219686383e-02  6.4788302710139620e-02  6.9129608529962583e-02  7.2399107354087083e-02  7.4419143622019152e-02  7.5075387405803093e-02  7.4331011934670121e-02  7.2231230753990308e-02  6.8897339069439970e-02  6.4511487312542151e-02  5.9295120765606904e-02  5.3484891986894482e-02  4.7309764829486824e-02  4.0972177058962653e-02  3.4634896214151063e-02  2.8413982106278362e-02  2.2377331813156119e-02  1.6547740652178438e-02  1.0909242269043376e-02  5.4155915115337233e-03  0.0000000000000000e+00  0.0000000000000000e+00  5.7792118927944454e-03  1.1644240626121388e-02  1.7670062560256113e-02  2.3908582676114204e-02  3.0378037996475649e-02  3.7053705158887035e-02  4.3860928708484168e-02  5.0671788586696936e-02  5.7306850280682345e-02  6.3543237013660978e-02  6.9129608529962541e-02  7.3807505079865970e-02  7.7337070669284608e-02  7.9523757980438620e-02  8.0241719880510515e-02  7.9449644617086188e-02  7.7195963975605755e-02  7.3612421400239408e-02  6.8897339069439983e-02  6.3291858012423652e-02  5.7053413983276013e-02  5.0430603510929040e-02  4.3642617807439138e-02  3.6865021324608269e-02  3.0222277136208040e-02  2.3786381121209264e-02  1.7580380890792988e-02  1.1585389437743858e-02  5.7498375681290705e-03  0.0000000000000000e+00  0.0000000000000000e+00  6.0233339696465788e-03  1.2138350135142063e-02  1.8425185130468244e-02  2.4939882911751133e-02  3.1703206519730256e-02  3.8690753481949121e-02  4.5825437883480480e-02  5.2973738795742430e-02  5.9947271042875415e-02  6.6511044784997239e-02  7.2399107354086986e-02  7.7337070669284497e-02  8.1069472102170054e-02  8.3388367947019273e-02  8.4158541398850817e-02  8.3334709971814733e-02  8.0967348378373910e-02  7.7195963975605728e-02  7.2231230753990280e-02  6.6329516332308255e-02  5.9764429491743827e-02  5.2799899214350292e-02  4.5668221345589170e-02  3.8554970365299160e-02  3.1591171884984552e-02  2.4852005554467121e-02  1.8360685508783420e-02  1.2096003181958092e-02  6.0021793353817639e-03  0.0000000000000000e+00  0.0000000000000000e+00  6.1721093594366630e-03  1.2439628729914810e-02  1.8885863150292691e-02  2.5569465278897582e-02  3.2512881956624495e-02  3.9692099367889609e-02  4.7028774085270189e-02  5.4386195363272424e-02  6.1570701595434707e-02  6.8339997825637905e-02  7.4419143622018999e-02  7.9523757980438481e-02  8.3388367947019218e-02  8.5796191288512860e-02  8.6605540644679568e-02  8.5767991770488453e-02  8.3334709971814733e-02  7.9449644617086104e-02  7.4331011934670038e-02  6.8244752147711724e-02  6.1474824252330480e-02  5.4295092941103067e-02  4.6946428954771274e-02  3.9621013852090853e-02  3.2454249356218386e-02  2.5523483203711828e-02  1.8852112588186535e-02  1.2417464417216733e-02  6.1610318779091828e-03  0.0000000000000000e+00  0.0000000000000000e+00  6.2186813954193008e-03  1.2534050922693215e-02  1.9030330005911200e-02  2.5767016390360716e-02  3.2767215902221342e-02  4.0007267484620676e-02  4.7408750043916030e-02  5.4834323396538723e-02  6.2089041461004475e-02  6.8928609481374414e-02  7.5075387405802926e-02  8.0241719880510376e-02  8.4158541398850761e-02  8.6605540644679541e-02  8.7438024809404186e-02  8.6605540644679638e-02  8.4158541398850817e-02  8.0241719880510431e-02  7.5075387405802996e-02  6.8928609481374511e-02  6.2089041461004635e-02  5.4834323396538882e-02  4.7408750043916155e-02  4.0007267484620752e-02  3.2767215902221425e-02  2.5767016390360772e-02  1.9030330005911228e-02  1.2534050922693227e-02  6.2186813954193077e-03  0.0000000000000000e+00  0.0000000000000000e+00  6.1610318779091707e-03  1.2417464417216709e-02  1.8852112588186483e-02  2.5523483203711759e-02  3.2454249356218288e-02  3.9621013852090763e-02  4.6946428954771142e-02  5.4295092941102900e-02  6.1474824252330362e-02  6.8244752147711599e-02  7.4331011934669913e-02  7.9449644617086007e-02  8.3334709971814636e-02  8.5767991770488383e-02  8.6605540644679513e-02  8.5796191288512860e-02  8.3388367947019218e-02  7.9523757980438453e-02  7.4419143622019013e-02  6.8339997825637988e-02  6.1570701595434832e-02  5.4386195363272563e-02  4.7028774085270265e-02  3.9692099367889665e-02  3.2512881956624537e-02  2.5569465278897613e-02  1.8885863150292708e-02  1.2439628729914814e-02  6.1721093594366682e-03  0.0000000000000000e+00  0.0000000000000000e+00  6.0021793353817457e-03  1.2096003181958056e-02  1.8360685508783361e-02  2.4852005554467042e-02  3.1591171884984455e-02  3.8554970365299042e-02  4.5668221345588990e-02  5.2799899214350104e-02  5.9764429491743667e-02  6.6329516332308089e-02  7.2231230753990142e-02  7.7195963975605589e-02  8.0967348378373785e-02  8.3334709971814594e-02  8.4158541398850706e-02  8.3388367947019149e-02  8.1069472102169957e-02  7.7337070669284441e-02  7.2399107354086958e-02  6.6511044784997295e-02  5.9947271042875470e-02  5.2973738795742527e-02  4.5825437883480549e-02  3.8690753481949156e-02  3.1703206519730298e-02  2.4939882911751157e-02  1.8425185130468258e-02  1.2138350135142065e-02  6.0233339696465814e-03  0.0000000000000000e+00  0.0000000000000000e+00  5.7498375681290514e-03  1.1585389437743813e-02  1.7580380890792915e-02  2.3786381121209173e-02  3.0222277136207926e-02  3.6865021324608137e-02  4.3642617807438951e-02  5.0430603510928824e-02  5.7053413983275805e-02  6.3291858012423444e-02  6.8897339069439789e-02  7.3612421400239228e-02  7.7195963975605561e-02  7.9449644617085938e-02  8.0241719880510307e-02  7.9523757980438411e-02  7.7337070669284413e-02  7.3807505079865846e-02  6.9129608529962472e-02  6.3543237013660936e-02  5.7306850280682338e-02  5.0671788586696957e-02  4.3860928708484175e-02  3.7053705158887035e-02  3.0378037996475662e-02  2.3908582676114211e-02  1.7670062560256109e-02  1.1644240626121381e-02  5.7792118927944445e-03  0.0000000000000000e+00  0.0000000000000000e+00  5.4155915115337060e-03  1.0909242269043339e-02  1.6547740652178372e-02  2.2377331813156039e-02  2.8413982106278258e-02  3.4634896214150952e-02  4.0972177058962479e-02  4.7309764829486636e-02  5.3484891986894274e-02  5.9295120765606717e-02  6.4511487312541971e-02  6.8897339069439803e-02  7.2231230753990128e-02  7.4331011934669886e-02  7.5075387405802871e-02  7.4419143622018943e-02  7.2399107354086903e-02  6.9129608529962430e-02  6.4788302710139509e-02  5.9595052219686348e-02  5.3787645229771065e-02  4.7598227630530038e-02  4.1233564371272020e-02  3.4861006540043080e-02  2.8600742372258649e-02  2.2523875444556529e-02  1.6655250722879815e-02  1.0979732679616447e-02  5.4507276114231290e-03  0.0000000000000000e+00  0.0000000000000000e+00  5.0137181901694031e-03  1.0096657750997823e-02  1.5307732735457527e-02  2.0687178510709815e-02  2.6247739768618061e-02  3.1967074292619288e-02  3.7782176532517094e-02  4.3586823593889150e-02  4.9233111934771680e-02  5.4537980191716927e-02  5.9295120765606738e-02  6.3291858012423458e-02  6.6329516332308089e-02  6.8244752147711571e-02  6.8928609481374400e-02  6.8339997825637863e-02  6.6511044784997170e-02  6.3543237013660867e-02  5.9595052219686279e-02  5.4863384926542837e-02  4.9562032949542825e-02  4.3900639499589854e-02  3.8066871722467838e-02  3.2213564292753807e-02  2.6451427046870746e-02  2.0846991515166492e-02  1.5424893942392673e-02  1.0173368841168347e-02  5.0518769242144925e-03  0.0000000000000000e+00  0.0000000000000000e+00  4.5598233264992644e-03  9.1794139715381702e-03  1.3909391939575032e-02  1.8783728098436734e-02  2.3811938419568839e-02  2.8972437403336358e-02  3.4207761750196096e-02  3.9422527215023290e-02  4.4485014924987847e-02  4.9233111934771680e-02  5.3484891986894316e-02  5.7053413983275840e-02  5.9764429491743654e-02  6.1474824252330300e-02  6.2089041461004461e-02  6.1570701595434679e-02  5.9947271042875359e-02  5.7306850280682241e-02  5.3787645229770996e-02  4.9562032949542791e-02  4.4817967478414794e-02  3.9740618557378579e-02  3.4496658244401415e-02  2.9222747249312266e-02  2.4018819707810155e-02  1.8945963299915089e-02  1.4028170437004737e-02  9.2570129621991504e-03  4.5983077208831607e-03  0.0000000000000000e+00  0.0000000000000000e+00  4.0694730395974240e-03  8.1891716776569447e-03  1.2401470268767787e-02  1.6734205083029429e-02  2.1193909385220370e-02  2.5760130139613632e-02  3.0381441405137447e-02  3.4973878986904475e-02  3.9422527215023297e-02  4.3586823593889164e-02  4.7309764829486664e-02  5.0430603510928859e-02  5.2799899214350104e-02  5.4295092941102879e-02  5.4834323396538716e-02  5.4386195363272410e-02  5.2973738795742409e-02  5.0671788586696846e-02  4.7598227630529948e-02  4.3900639499589798e-02  3.9740618557378538e-02  3.5278137963510071e-02  3.0658018482888908e-02  2.5999854843643217e-02  2.1391975679479959e-02  1.6889336824420037e-02  1.2514790065435192e-02  8.2629545317777810e-03  4.1059042826970277e-03  0.0000000000000000e+00  0.0000000000000000e+00  3.5569780437742951e-03  7.1549941830960249e-03  1.0828602941155362e-02  1.4599939413444812e-02  1.8472988417453175e-02  2.2428837735891077e-02  2.6422434996201741e-02  3.0381441405137426e-02  3.4207761750196068e-02  3.7782176532517080e-02  4.0972177058962486e-02  4.3642617807438978e-02  4.5668221345588990e-02  4.6946428954771115e-02  4.7408750043916023e-02  4.7028774085270154e-02  4.5825437883480445e-02  4.3860928708484077e-02  4.1233564371271972e-02  3.8066871722467810e-02  3.4496658244401381e-02  3.0658018482888894e-02  2.6673959233666646e-02  2.2646797905227774e-02  1.8652866946795073e-02  1.4740502627624162e-02  1.0930905956660962e-02  7.2212644915014175e-03  3.5894896862398366e-03  0.0000000000000000e+00  0.0000000000000000e+00  3.0344445540542845e-03  6.1014194314150698e-03  9.2283490722702751e-03  1.2432305320913174e-02  1.5715272235694945e-02  1.9060280375210965e-02  2.2428837735891057e-02  2.5760130139613598e-02  2.8972437403336326e-02  3.1967074292619267e-02  3.4634896214150938e-02  3.6865021324608123e-02  3.8554970365299014e-02  3.9621013852090721e-02  4.0007267484620641e-02  3.9692099367889561e-02  3.8690753481949065e-02  3.7053705158886958e-02  3.4861006540043031e-02  3.2213564292753773e-02  2.9222747249312248e-02  2.5999854843643214e-02  2.2646797905227761e-02  1.9248946312356515e-02  1.5870616931146185e-02  1.2553233250173327e-02  9.3158648844076618e-03  6.1576780487763412e-03  3.0617818647708170e-03  0.0000000000000000e+00  0.0000000000000000e+00  2.5111542170118775e-03  5.0472091637140601e-03  7.6292938130098787e-03  1.0270157340185875e-02  1.2970371107484745e-02  1.5715272235694945e-02  1.8472988417453162e-02  2.1193909385220339e-02  2.3811938419568811e-02  2.6247739768618054e-02  2.8413982106278265e-02  3.0222277136207919e-02  3.1591171884984427e-02  3.2454249356218268e-02  3.2767215902221307e-02  3.2512881956624447e-02  3.1703206519730208e-02  3.0378037996475597e-02  2.8600742372258587e-02  2.6451427046870705e-02  2.4018819707810148e-02  2.1391975679479956e-02  1.8652866946795070e-02  1.5870616931146178e-02  1.3097783670290570e-02  1.0368752563988684e-02  7.7000412042815946e-03  5.0921679705686097e-03  2.5326852998149812e-03  0.0000000000000000e+00  0.0000000000000000e+00  1.9932861875501260e-03  4.0047989165443582e-03  6.0502397923798100e-03  8.1387847762906581e-03  1.0270157340185878e-02  1.2432305320913177e-02  1.4599939413444807e-02  1.6734205083029415e-02  1.8783728098436724e-02  2.0687178510709801e-02  2.2377331813156032e-02  2.3786381121209163e-02  2.4852005554467024e-02  2.5523483203711738e-02  2.5767016390360688e-02  2.5569465278897537e-02  2.4939882911751081e-02  2.3908582676114148e-02  2.2523875444556484e-02  2.0846991515166460e-02  1.8945963299915075e-02  1.6889336824420030e-02  1.474050262762415