<?xml version="1.0"?>
<VTKFile type="UnstructuredGrid"  version="0.1"  >
<UnstructuredGrid>
<Piece  NumberOfPoints="961" NumberOfCells="1800">
<Points>
<DataArray  type="Float64"  NumberOfComponents="3"  format="ascii">-2 -2 0  -1.866666666666667 -2 0  -1.733333333333333 -2 0  -1.6 -2 0  -1.466666666666667 -2 0  -1.333333333333333 -2 0  -1.2 -2 0  -1.066666666666667 -2 0  -0.9333333333333333 -2 0  -0.8 -2 0  -0.6666666666666667 -2 0  -0.5333333333333334 -2 0  -0.3999999999999999 -2 0  -0.2666666666666666 -2 0  -0.1333333333333333 -2 0  0 -2 0  0.1333333333333333 -2 0  0.2666666666666666 -2 0  0.3999999999999999 -2 0  0.5333333333333332 -2 0  0.6666666666666665 -2 0  0.7999999999999998 -2 0  0.9333333333333331 -2 0  1.066666666666667 -2 0  1.2 -2 0  1.333333333333333 -2 0  1.466666666666667 -2 0  1.6 -2 0  1.733333333333333 -2 0  1.866666666666667 -2 0  2 -2 0  -2 -1.866666666666667 0  -1.866666666666667 -1.866666666666667 0  -1.733333333333333 -1.866666666666667 0  -1.6 -1.866666666666667 0  -1.466666666666667 -1.866666666666667 0  -1.333333333333333 -1.866666666666667 0  -1.2 -1.866666666666667 0  -1.066666666666667 -1.866666666666667 0  -0.9333333333333333 -1.866666666666667 0  -0.8 -1.866666666666667 0  -0.6666666666666667 -1.866666666666667 0  -0.5333333333333334 -1.866666666666667 0  -0.3999999999999999 -1.866666666666667 0  -0.2666666666666666 -1.866666666666667 0  -0.1333333333333333 -1.866666666666667 0  0 -1.866666666666667 0  0.1333333333333333 -1.866666666666667 0  0.2666666666666666 -1.866666666666667 0  0.3999999999999999 -1.866666666666667 0  0.5333333333333332 -1.866666666666667 0  0.6666666666666665 -1.866666666666667 0  0.7999999999999998 -1.866666666666667 0  0.9333333333333331 -1.866666666666667 0  1.066666666666667 -1.866666666666667 0  1.2 -1.866666666666667 0  1.333333333333333 -1.866666666666667 0  1.466666666666667 -1.866666666666667 0  1.6 -1.866666666666667 0  1.733333333333333 -1.866666666666667 0  1.866666666666667 -1.866666666666667 0  2 -1.866666666666667 0  -2 -1.733333333333333 0  -1.866666666666667 -1.733333333333333 0  -1.733333333333333 -1.733333333333333 0  -1.6 -1.733333333333333 0  -1.466666666666667 -1.733333333333333 0  -1.333333333333333 -1.733333333333333 0  -1.2 -1.733333333333333 0  -1.066666666666667 -1.733333333333333 0  -0.9333333333333333 -1.733333333333333 0  -0.8 -1.733333333333333 0  -0.6666666666666667 -1.733333333333333 0  -0.5333333333333334 -1.733333333333333 0  -0.3999999999999999 -1.733333333333333 0  -0.2666666666666666 -1.733333333333333 0  -0.1333333333333333 -1.733333333333333 0  0 -1.733333333333333 0  0.1333333333333333 -1.733333333333333 0  0.2666666666666666 -1.733333333333333 0  0.3999999999999999 -1.733333333333333 0  0.5333333333333332 -1.733333333333333 0  0.6666666666666665 -1.733333333333333 0  0.7999999999999998 -1.733333333333333 0  0.9333333333333331 -1.733333333333333 0  1.066666666666667 -1.733333333333333 0  1.2 -1.733333333333333 0  1.333333333333333 -1.733333333333333 0  1.466666666666667 -1.733333333333333 0  1.6 -1.733333333333333 0  1.733333333333333 -1.733333333333333 0  1.866666666666667 -1.733333333333333 0  2 -1.733333333333333 0  -2 -1.6 0  -1.866666666666667 -1.6 0  -1.733333333333333 -1.6 0  -1.6 -1.6 0  -1.466666666666667 -1.6 0  -1.333333333333333 -1.6 0  -1.2 -1.6 0  -1.066666666666667 -1.6 0  -0.9333333333333333 -1.6 0  -0.8 -1.6 0  -0.6666666666666667 -1.6 0  -0.5333333333333334 -1.6 0  -0.3999999999999999 -1.6 0  -0.2666666666666666 -1.6 0  -0.1333333333333333 -1.6 0  0 -1.6 0  0.1333333333333333 -1.6 0  0.2666666666666666 -1.6 0  0.3999999999999999 -1.6 0  0.5333333333333332 -1.6 0  0.6666666666666665 -1.6 0  0.7999999999999998 -1.6 0  0.9333333333333331 -1.6 0  1.066666666666667 -1.6 0  1.2 -1.6 0  1.333333333333333 -1.6 0  1.466666666666667 -1.6 0  1.6 -1.6 0  1.733333333333333 -1.6 0  1.866666666666667 -1.6 0  2 -1.6 0  -2 -1.466666666666667 0  -1.866666666666667 -1.466666666666667 0  -1.733333333333333 -1.466666666666667 0  -1.6 -1.466666666666667 0  -1.466666666666667 -1.466666666666667 0  -1.333333333333333 -1.466666666666667 0  -1.2 -1.466666666666667 0  -1.066666666666667 -1.466666666666667 0  -0.9333333333333333 -1.466666666666667 0  -0.8 -1.466666666666667 0  -0.6666666666666667 -1.466666666666667 0  -0.5333333333333334 -1.466666666666667 0  -0.3999999999999999 -1.466666666666667 0  -0.2666666666666666 -1.466666666666667 0  -0.1333333333333333 -1.466666666666667 0  0 -1.466666666666667 0  0.1333333333333333 -1.466666666666667 0  0.2666666666666666 -1.466666666666667 0  0.3999999999999999 -1.466666666666667 0  0.5333333333333332 -1.466666666666667 0  0.6666666666666665 -1.466666666666667 0  0.7999999999999998 -1.466666666666667 0  0.9333333333333331 -1.466666666666667 0  1.066666666666667 -1.466666666666667 0  1.2 -1.466666666666667 0  1.333333333333333 -1.466666666666667 0  1.466666666666667 -1.466666666666667 0  1.6 -1.466666666666667 0  1.733333333333333 -1.466666666666667 0  1.866666666666667 -1.466666666666667 0  2 -1.466666666666667 0  -2 -1.333333333333333 0  -1.866666666666667 -1.333333333333333 0  -1.733333333333333 -1.333333333333333 0  -1.6 -1.333333333333333 0  -1.466666666666667 -1.333333333333333 0  -1.333333333333333 -1.333333333333333 0  -1.2 -1.333333333333333 0  -1.066666666666667 -1.333333333333333 0  -0.9333333333333333 -1.333333333333333 0  -0.8 -1.333333333333333 0  -0.6666666666666667 -1.333333333333333 0  -0.5333333333333334 -1.333333333333333 0  -0.3999999999999999 -1.333333333333333 0  -0.2666666666666666 -1.333333333333333 0  -0.1333333333333333 -1.333333333333333 0  0 -1.333333333333333 0  0.1333333333333333 -1.333333333333333 0  0.2666666666666666 -1.333333333333333 0  0.3999999999999999 -1.333333333333333 0  0.5333333333333332 -1.333333333333333 0  0.6666666666666665 -1.333333333333333 0  0.7999999999999998 -1.333333333333333 0  0.9333333333333331 -1.333333333333333 0  1.066666666666667 -1.333333333333333 0  1.2 -1.333333333333333 0  1.333333333333333 -1.333333333333333 0  1.466666666666667 -1.333333333333333 0  1.6 -1.333333333333333 0  1.733333333333333 -1.333333333333333 0  1.866666666666667 -1.333333333333333 0  2 -1.333333333333333 0  -2 -1.2 0  -1.866666666666667 -1.2 0  -1.733333333333333 -1.2 0  -1.6 -1.2 0  -1.466666666666667 -1.2 0  -1.333333333333333 -1.2 0  -1.2 -1.2 0  -1.066666666666667 -1.2 0  -0.9333333333333333 -1.2 0  -0.8 -1.2 0  -0.6666666666666667 -1.2 0  -0.5333333333333334 -1.2 0  -0.3999999999999999 -1.2 0  -0.2666666666666666 -1.2 0  -0.1333333333333333 -1.2 0  0 -1.2 0  0.1333333333333333 -1.2 0  0.2666666666666666 -1.2 0  0.3999999999999999 -1.2 0  0.5333333333333332 -1.2 0  0.6666666666666665 -1.2 0  0.7999999999999998 -1.2 0  0.9333333333333331 -1.2 0  1.066666666666667 -1.2 0  1.2 -1.2 0  1.333333333333333 -1.2 0  1.466666666666667 -1.2 0  1.6 -1.2 0  1.733333333333333 -1.2 0  1.866666666666667 -1.2 0  2 -1.2 0  -2 -1.066666666666667 0  -1.866666666666667 -1.066666666666667 0  -1.733333333333333 -1.066666666666667 0  -1.6 -1.066666666666667 0  -1.466666666666667 -1.066666666666667 0  -1.333333333333333 -1.066666666666667 0  -1.2 -1.066666666666667 0  -1.066666666666667 -1.066666666666667 0  -0.9333333333333333 -1.066666666666667 0  -0.8 -1.066666666666667 0  -0.6666666666666667 -1.066666666666667 0  -0.5333333333333334 -1.066666666666667 0  -0.3999999999999999 -1.066666666666667 0  -0.2666666666666666 -1.066666666666667 0  -0.1333333333333333 -1.066666666666667 0  0 -1.066666666666667 0  0.1333333333333333 -1.066666666666667 0  0.2666666666666666 -1.066666666666667 0  0.3999999999999999 -1.066666666666667 0  0.5333333333333332 -1.066666666666667 0  0.6666666666666665 -1.066666666666667 0  0.7999999999999998 -1.066666666666667 0  0.9333333333333331 -1.066666666666667 0  1.066666666666667 -1.066666666666667 0  1.2 -1.066666666666667 0  1.333333333333333 -1.066666666666667 0  1.466666666666667 -1.066666666666667 0  1.6 -1.066666666666667 0  1.733333333333333 -1.066666666666667 0  1.866666666666667 -1.066666666666667 0  2 -1.066666666666667 0  -2 -0.9333333333333333 0  -1.866666666666667 -0.9333333333333333 0  -1.733333333333333 -0.9333333333333333 0  -1.6 -0.9333333333333333 0  -1.466666666666667 -0.9333333333333333 0  -1.333333333333333 -0.9333333333333333 0  -1.2 -0.9333333333333333 0  -1.066666666666667 -0.9333333333333333 0  -0.9333333333333333 -0.9333333333333333 0  -0.8 -0.9333333333333333 0  -0.6666666666666667 -0.9333333333333333 0  -0.5333333333333334 -0.9333333333333333 0  -0.3999999999999999 -0.9333333333333333 0  -0.2666666666666666 -0.9333333333333333 0  -0.1333333333333333 -0.9333333333333333 0  0 -0.9333333333333333 0  0.1333333333333333 -0.9333333333333333 0  0.2666666666666666 -0.9333333333333333 0  0.3999999999999999 -0.9333333333333333 0  0.5333333333333332 -0.9333333333333333 0  0.6666666666666665 -0.9333333333333333 0  0.7999999999999998 -0.9333333333333333 0  0.9333333333333331 -0.9333333333333333 0  1.066666666666667 -0.9333333333333333 0  1.2 -0.9333333333333333 0  1.333333333333333 -0.9333333333333333 0  1.466666666666667 -0.9333333333333333 0  1.6 -0.9333333333333333 0  1.733333333333333 -0.9333333333333333 0  1.866666666666667 -0.9333333333333333 0  2 -0.9333333333333333 0  -2 -0.8 0  -1.866666666666667 -0.8 0  -1.733333333333333 -0.8 0  -1.6 -0.8 0  -1.466666666666667 -0.8 0  -1.333333333333333 -0.8 0  -1.2 -0.8 0  -1.066666666666667 -0.8 0  -0.9333333333333333 -0.8 0  -0.8 -0.8 0  -0.6666666666666667 -0.8 0  -0.5333333333333334 -0.8 0  -0.3999999999999999 -0.8 0  -0.2666666666666666 -0.8 0  -0.1333333333333333 -0.8 0  0 -0.8 0  0.1333333333333333 -0.8 0  0.2666666666666666 -0.8 0  0.3999999999999999 -0.8 0  0.5333333333333332 -0.8 0  0.6666666666666665 -0.8 0  0.7999999999999998 -0.8 0  0.9333333333333331 -0.8 0  1.066666666666667 -0.8 0  1.2 -0.8 0  1.333333333333333 -0.8 0  1.466666666666667 -0.8 0  1.6 -0.8 0  1.733333333333333 -0.8 0  1.866666666666667 -0.8 0  2 -0.8 0  -2 -0.6666666666666667 0  -1.866666666666667 -0.
[...]
<PointData  Scalars="f_578"> 
<DataArray  type="Float64"  Name="f_578"  format="ascii">0.0000000000000000e+00  0.0000000000000000e+00  0.0000000000000000e+00  0.0000000000000000e+00  0.0000000000000000e+00  0.0000000000000000e+00  0.0000000000000000e+00  0.0000000000000000e+00  0.0000000000000000e+00  0.0000000000000000e+00  0.0000000000000000e+00  0.0000000000000000e+00  0.0000000000000000e+00  0.0000000000000000e+00  0.0000000000000000e+00  0.0000000000000000e+00  0.0000000000000000e+00  0.0000000000000000e+00  0.0000000000000000e+00  0.0000000000000000e+00  0.0000000000000000e+00  0.0000000000000000e+00  0.0000000000000000e+00  0.0000000000000000e+00  0.0000000000000000e+00  0.0000000000000000e+00  0.0000000000000000e+00  0.0000000000000000e+00  0.0000000000000000e+00  0.0000000000000000e+00  0.0000000000000000e+00  0.0000000000000000e+00  3.5724545468242660e-04  7.2621358362377308e-04  1.1152989461640872e-03  1.5312535634424782e-03  1.9779621311499991e-03  2.4553866120625985e-03  2.9586967969822313e-03  3.4777181007689187e-03  3.9968782522613478e-03  4.4958295616189543e-03  4.9508533229174730e-03  5.3370164315676098e-03  5.6308691423352670e-03  5.8132951801702585e-03  5.8720145745022956e-03  5.8032495455655779e-03  5.6122110423865376e-03  5.3123127668368592e-03  4.9232940498934964e-03  4.4686469811885884e-03  3.9728381120892704e-03  3.4587800736870103e-03  2.9458770022971403e-03  2.4487958134438107e-03  1.9769566280192436e-03  1.5346241563816369e-03  1.1214276862972082e-03  7.3313056089883868e-04  3.6248539697168806e-04  0.0000000000000000e+00  0.0000000000000000e+00  7.2621358362377276e-04  1.4756830798152523e-03  2.2666744319020798e-03  3.1136384363760826e-03  4.0250220941379705e-03  5.0011646030556356e-03  6.0324819894941395e-03  7.0982618224918062e-03  8.1664710669622897e-03  9.1949707431058288e-03  1.0134388360611509e-02  1.0932610954153911e-02  1.1540469191061420e-02  1.1917789304335924e-02  1.2038735891474578e-02  1.1895379079109307e-02  1.1498735865635707e-02  1.0877081097902136e-02  1.0071926420990395e-02  9.1325322189660680e-03  8.1100174670687437e-03  7.0520448291932925e-03  5.9987621447923850e-03  4.9803039042630795e-03  4.0158153870975908e-03  3.1137301012301747e-03  2.2729271837035494e-03  1.4843989361231142e-03  7.3313056089883868e-04  0.0000000000000000e+00  0.0000000000000000e+00  1.1152989461640868e-03  2.2666744319020798e-03  3.4839775412652163e-03  4.7909376276785414e-03  6.2018543107576147e-03  7.7182899613277107e-03  9.3261060328181655e-03  1.0993380459926457e-02  1.2669888279769606e-02  1.4288833835992699e-02  1.5771308921449425e-02  1.7033482386522782e-02  1.7995860746599344e-02  1.8593267869268369e-02  1.8783725758057104e-02  1.8554408341996065e-02  1.7923372355838661e-02  1.6936713302844564e-02  1.5661840890770867e-02  1.4178368106447599e-02  1.2568430630751071e-02  1.0908071762564975e-02  9.2607945173790503e-03  7.6737284349586423e-03  6.1762885380110951e-03  4.7808344657451979e-03  3.4846912996207824e-03  2.2729271837035494e-03  1.1214276862972082e-03  0.0000000000000000e+00  0.0000000000000000e+00  1.5312535634424782e-03  3.1136384363760826e-03  4.7909376276785414e-03  6.5983815636862734e-03  8.5580203312353668e-03  1.0673958127289707e-02  1.2927917028481766e-02  1.5275916334935198e-02  1.7647109750352555e-02  1.9945882385608717e-02  2.2058034197720428e-02  2.3861187754661239e-02  2.5238521787890943e-02  2.6093808697334051e-02  2.6364936377993760e-02  2.6033022716630071e-02  2.5125052505018355e-02  2.3709476969361324e-02  2.1885897580173050e-02  1.9771220244373607e-02  1.7485135320028336e-02  1.5137429374942325e-02  1.2818741450819127e-02  1.0595331383312007e-02  8.5075569831633488e-03  6.5712284438454961e-03  4.7808344657451970e-03  3.1137301012301747e-03  1.5346241563816364e-03  0.0000000000000000e+00  0.0000000000000000e+00  1.9779621311499986e-03  4.0250220941379687e-03  6.2018543107576112e-03  8.5580203312353633e-03  1.1125816012314490e-02  1.3913730244946538e-02  1.6900103597609472e-02  2.0028065440489358e-02  2.3203256780515619e-02  2.6296018245522745e-02  2.9149411907404686e-02  3.1593494031109365e-02  3.3464717047859693e-02  3.4627586335465844e-02  3.4994381067131007e-02  3.4538539356060161e-02  3.3298519050409356e-02  3.1371272948242247e-02  2.8897082463501866e-02  2.6039417963320141e-02  2.2964138252364107e-02  1.9821704002416150e-02  1.6734640554952711e-02  1.3790883413576444e-02  1.1042372966857811e-02  8.5075569831633505e-03  6.1762885380110951e-03  4.0158153870975908e-03  1.9769566280192431e-03  0.0000000000000000e+00  0.0000000000000000e+00  2.4553866120625976e-03  5.0011646030556356e-03  7.7182899613277072e-03  1.0673958127289702e-02  1.3913730244946529e-02  1.7452863787383862e-02  2.1267547461140252e-02  2.5287454038719574e-02  2.9391704396576832e-02  3.3410706214523071e-02  3.7136036902883793e-02  4.0339290038951973e-02  4.2798600537032980e-02  4.4328911857771096e-02  4.4809940003362518e-02  4.4205315736649285e-02  4.2568111406689389e-02  4.0031450575684496e-02  3.6786836063403980e-02  3.3055688091646863e-02  2.9060431700623203e-02  2.5000364760432818e-02  2.1035286149698750e-02  1.7277481254477936e-02  1.3790883413576449e-02  1.0595331383312010e-02  7.6737284349586441e-03  4.9803039042630804e-03  2.4487958134438107e-03  0.0000000000000000e+00  0.0000000000000000e+00  2.9586967969822283e-03  6.0324819894941326e-03  9.3261060328181534e-03  1.2927917028481744e-02  1.6900103597609455e-02  2.1267547461140242e-02  2.6006070193063967e-02  3.1031852098244214e-02  3.6194824842883153e-02  4.1279522258420097e-02  4.6016685288106401e-02  5.0107355128634117e-02  5.3258138663456328e-02  5.5222438221635528e-02  5.5839161938198323e-02  5.5059493111545614e-02  5.2954671337230426e-02  4.9702843914896343e-02  4.5558858826232951e-02  4.0815017848548664e-02  3.5761883970590512e-02  3.0656402647376613e-02  2.5701176173692594e-02  2.1035286149698736e-02  1.6734640554952704e-02  1.2818741450819121e-02  9.2607945173790434e-03  5.9987621447923824e-03  2.9458770022971390e-03  0.0000000000000000e+00  0.0000000000000000e+00  3.4777181007689148e-03  7.0982618224917984e-03  1.0993380459926446e-02  1.5275916334935172e-02  2.0028065440489320e-02  2.5287454038719535e-02  3.1031852098244200e-02  3.7164668997415717e-02  4.3504843742524016e-02  4.9785876272556567e-02  5.5668793232017233e-02  6.0771995589184315e-02  6.4716866852123564e-02  6.7182497191185978e-02  6.7957963053577902e-02  6.6978909983795659e-02  6.4338332759140082e-02  6.0268699435671216e-02  5.5100924710291092e-02  4.9211581854715768e-02  4.2971066798753045e-02  3.6702535134992796e-02  3.0656402647376603e-02  2.5000364760432797e-02  1.9821704002416125e-02  1.5137429374942305e-02  1.0908071762564959e-02  7.0520448291932847e-03  3.4587800736870090e-03  0.0000000000000000e+00  0.0000000000000000e+00  3.9968782522613435e-03  8.1664710669622827e-03  1.2669888279769592e-02  1.7647109750352528e-02  2.3203256780515574e-02  2.9391704396576790e-02  3.6194824842883132e-02  4.3504843742523988e-02  5.1109289741810303e-02  5.8687251267356522e-02  6.5823100054959019e-02  7.2042292226900700e-02  7.6868642884443436e-02  7.9894924020769448e-02  8.0851547263471241e-02  7.9655270727459412e-02  7.6423859328783594e-02  7.1452584593115043e-02  6.5160101638869219e-02  5.8019368693733260e-02  5.0490869397236335e-02  4.2971066798753073e-02  3.5761883970590498e-02  2.9060431700623172e-02  2.2964138252364083e-02  1.7485135320028326e-02  1.2568430630751063e-02  8.1100174670687419e-03  3.9728381120892695e-03  0.0000000000000000e+00  0.0000000000000000e+00  4.4958295616189491e-03  9.1949707431058184e-03  1.4288833835992680e-02  1.9945882385608685e-02  2.6296018245522707e-02  3.3410706214523037e-02  4.1279522258420076e-02  4.9785876272556553e-02  5.8687251267356515e-02  6.7607758480864838e-02  7.6051826308393994e-02  8.3445723481942152e-02  8.9207215938738482e-02  9.2833778739298684e-02  9.3990017845731966e-02  9.2570578567055556e-02  8.8719627622536407e-02  8.2801129289727313e-02  7.5329788887193605e-02  6.6883416827777625e-02  5.8019368693733260e-02  4.9211581854715768e-02  4.0815017848548622e-02  3.3055688091646829e-02  2.6039417963320134e-02  1.9771220244373607e-02  1.4178368106447601e-02  9.1325322189660697e-03  4.4686469811885884e-03  0.0000000000000000e+00  0.0000000000000000e+00  4.9508533229174687e-03  1.0134388360611500e-02  1.5771308921449404e-02  2.2058034197720393e-02  2.9149411907404638e-02  3.7136036902883751e-02  4.6016685288106395e-02  5.5668793232017205e-02  6.5823100054958991e-02  7.6051826308393966e-02  8.5781487550706678e-02  9.4339423829048585e-02  1.0103561867999816e-01  1.0526904692688700e-01  1.0663500202381365e-01  1.0500353163353691e-01  1.0054458730078290e-01  9.3692040822618533e-02  8.5058861958651269e-02  7.5329788887193633e-02  6.5160101638869206e-02  5.5100924710291058e-02  4.5558858826232930e-02  3.6786836063403959e-02  2.8897082463501873e-02  2.1885897580173050e-02  1.5661840890770880e-02  1.0071926420990404e-02  4.9232940498934990e-03  0.0000000000000000e+00  0.0000000000000000e+00  5.3370164315676046e-03  1.0932610954153904e-02  1.7033482386522771e-02  2.3861187754661211e-02  3.1593494031109330e-02  4.0339290038951932e-02  5.0107355128634110e-02  6.0771995589184273e-02  7.2042292226900673e-02  8.3445723481942083e-02  9.4339423829048516e-02  1.0396056665805704e-01  1.1151896038387939e-01  1.1632030893179697e-01  1.1789275072541507e-01  1.1608080081092387e-01  1.1107668072963874e-01  1.0337882574726794e-01  9.3692040822618575e-02  8.2801129289727354e-02  7.1452584593115112e-02  6.0268699435671279e-02  4.9702843914896364e-02  4.0031450575684489e-02  3.1371272948242247e-02  2.3709476969361338e-02  1.6936713302844589e-02  1.0877081097902148e-02  5.3123127668368636e-03  0.0000000000000000e+00  0.0000000000000000e+00  5.6308691423352635e-03  1.1540469191061411e-02  1.7995860746599333e-02  2.5238521787890912e-02  3.3464717047859638e-02  4.2798600537032896e-02  5.3258138663456245e-02  6.4716866852123425e-02  7.6868642884443339e-02  8.9207215938738399e-02  1.0103561867999808e-01  1.1151896038387929e-01  1.1978522114905819e-01  1.2506218208181458e-01  1.2682015034932867e-01  1.2487955490916811e-01  1.1944836184550733e-01  1.1107668072963868e-01  1.0054458730078289e-01  8.8719627622536407e-02  7.6423859328783650e-02  6.4338332759140138e-02  5.2954671337230426e-02  4.2568111406689361e-02  3.3298519050409363e-02  2.5125052505018362e-02  1.7923372355838671e-02  1.1498735865635715e-02  5.6122110423865411e-03  0.0000000000000000e+00  0.0000000000000000e+00  5.8132951801702498e-03  1.1917789304335916e-02  1.8593267869268345e-02  2.6093808697334010e-02  3.4627586335465789e-02  4.4328911857770999e-02  5.5222438221635431e-02  6.7182497191185853e-02  7.9894924020769295e-02  9.2833778739298559e-02  1.0526904692688688e-01  1.1632030893179689e-01  1.2506218208181449e-01  1.3066980936588013e-01  1.3257241629379449e-01  1.3057072789285251e-01  1.2487955490916805e-01  1.1608080081092374e-01  1.0500353163353689e-01  9.2570578567055528e-02  7.9655270727459412e-02  6.6978909983795715e-02  5.5059493111545607e-02  4.4205315736649244e-02  3.4538539356060147e-02  2.6033022716630064e-02  1.8554408341996072e-02  1.1895379079109307e-02  5.8032495455655779e-03  0.0000000000000000e+00  0.0000000000000000e+00  5.8720145745022878e-03  1.2038735891474561e-02  1.8783725758057077e-02  2.6364936377993722e-02  3.4994381067130938e-02  4.4809940003362435e-02  5.5839161938198240e-02  6.7957963053577777e-02  8.0851547263471102e-02  9.3990017845731841e-02  1.0663500202381355e-01  1.1789275072541494e-01  1.2682015034932853e-01  1.3257241629379443e-01  1.3456040830997212e-01  1.3257241629379446e-01  1.2682015034932859e-01  1.1789275072541490e-01  1.0663500202381354e-01  9.3990017845731882e-02  8.0851547263471199e-02  6.7957963053577944e-02  5.5839161938198288e-02  4.4809940003362476e-02  3.4994381067130986e-02  2.6364936377993746e-02  1.8783725758057087e-02  1.2038735891474564e-02  5.8720145745022904e-03  0.0000000000000000e+00  0.0000000000000000e+00  5.8032495455655701e-03  1.1895379079109297e-02  1.8554408341996044e-02  2.6033022716630022e-02  3.4538539356060091e-02  4.4205315736649188e-02  5.5059493111545524e-02  6.6978909983795548e-02  7.9655270727459274e-02  9.2570578567055445e-02  1.0500353163353680e-01  1.1608080081092370e-01  1.2487955490916799e-01  1.3057072789285248e-01  1.3257241629379438e-01  1.3066980936588007e-01  1.2506218208181447e-01  1.1632030893179675e-01  1.0526904692688679e-01  9.2833778739298559e-02  7.9894924020769392e-02  6.7182497191185991e-02  5.5222438221635514e-02  4.4328911857771040e-02  3.4627586335465817e-02  2.6093808697334030e-02  1.8593267869268348e-02  1.1917789304335914e-02  5.8132951801702507e-03  0.0000000000000000e+00  0.0000000000000000e+00  5.6122110423865298e-03  1.1498735865635691e-02  1.7923372355838640e-02  2.5125052505018300e-02  3.3298519050409280e-02  4.2568111406689299e-02  5.2954671337230336e-02  6.4338332759139971e-02  7.6423859328783469e-02  8.8719627622536254e-02  1.0054458730078274e-01  1.1107668072963853e-01  1.1944836184550714e-01  1.2487955490916799e-01  1.2682015034932856e-01  1.2506218208181447e-01  1.1978522114905805e-01  1.1151896038387915e-01  1.0103561867999800e-01  8.9207215938738385e-02  7.6868642884443367e-02  6.4716866852123550e-02  5.3258138663456286e-02  4.2798600537032917e-02  3.3464717047859652e-02  2.5238521787890923e-02  1.7995860746599337e-02  1.1540469191061409e-02  5.6308691423352618e-03  0.0000000000000000e+00  0.0000000000000000e+00  5.3123127668368506e-03  1.0877081097902117e-02  1.6936713302844537e-02  2.3709476969361272e-02  3.1371272948242164e-02  4.0031450575684385e-02  4.9702843914896211e-02  6.0268699435671078e-02  7.1452584593114890e-02  8.2801129289727132e-02  9.3692040822618311e-02  1.0337882574726769e-01  1.1107668072963850e-01  1.1608080081092363e-01  1.1789275072541484e-01  1.1632030893179676e-01  1.1151896038387918e-01  1.0396056665805689e-01  9.4339423829048391e-02  8.3445723481942000e-02  7.2042292226900631e-02  6.0771995589184280e-02  5.0107355128634082e-02  4.0339290038951925e-02  3.1593494031109323e-02  2.3861187754661204e-02  1.7033482386522764e-02  1.0932610954153899e-02  5.3370164315676019e-03  0.0000000000000000e+00  0.0000000000000000e+00  4.9232940498934877e-03  1.0071926420990382e-02  1.5661840890770839e-02  2.1885897580173008e-02  2.8897082463501818e-02  3.6786836063403890e-02  4.5558858826232791e-02  5.5100924710290905e-02  6.5160101638869039e-02  7.5329788887193452e-02  8.5058861958651075e-02  9.3692040822618325e-02  1.0054458730078268e-01  1.0500353163353676e-01  1.0663500202381344e-01  1.0526904692688677e-01  1.0103561867999793e-01  9.4339423829048349e-02  8.5781487550706526e-02  7.6051826308393869e-02  6.5823100054958936e-02  5.5668793232017219e-02  4.6016685288106367e-02  3.7136036902883730e-02  2.9149411907404641e-02  2.2058034197720400e-02  1.5771308921449401e-02  1.0134388360611495e-02  4.9508533229174669e-03  0.0000000000000000e+00  0.0000000000000000e+00  4.4686469811885789e-03  9.1325322189660506e-03  1.4178368106447571e-02  1.9771220244373573e-02  2.6039417963320093e-02  3.3055688091646766e-02  4.0815017848548525e-02  4.9211581854715615e-02  5.8019368693733107e-02  6.6883416827777487e-02  7.5329788887193452e-02  8.2801129289727132e-02  8.8719627622536212e-02  9.2570578567055389e-02  9.3990017845731771e-02  9.2833778739298475e-02  8.9207215938738274e-02  8.3445723481941916e-02  7.6051826308393827e-02  6.7607758480864755e-02  5.8687251267356459e-02  4.9785876272556574e-02  4.1279522258420076e-02  3.3410706214523023e-02  2.6296018245522707e-02  1.9945882385608685e-02  1.4288833835992682e-02  9.1949707431058150e-03  4.4958295616189491e-03  0.0000000000000000e+00  0.0000000000000000e+00  3.9728381120892609e-03  8.1100174670687229e-03  1.2568430630751040e-02  1.7485135320028291e-02  2.2964138252364055e-02  2.9060431700623130e-02  3.5761883970590415e-02  4.2971066798752920e-02  5.0490869397236168e-02  5.8019368693733107e-02  6.5160101638869067e-02  7.1452584593114918e-02  7.6423859328783442e-02  7.9655270727459218e-02  8.0851547263471060e-02  7.9894924020769240e-02  7.6868642884443256e-02  7.2042292226900562e-02  6.5823100054958894e-02  5.8687251267356445e-02  5.1109289741810261e-02  4.3504843742524009e-02  3.6194824842883118e-02  2.9391704396576766e-02  2.3203256780515567e-02  1.7647109750352528e-02  1.2669888279769588e-02  8.1664710669622758e-03  3.9968782522613417e-03  0.0000000000000000e+00  0.0000000000000000e+00  3.4587800736870021e-03  7.0520448291932734e-03  1.0908071762564944e-02  1.5137429374942279e-02  1.9821704002416101e-02  2.5000364760432763e-02  3.0656402647376534e-02  3.6702535134992678e-02  4.2971066798752934e-02  4.9211581854715636e-02  5.5100924710290926e-02  6.0268699435671119e-02  6.4338332759139971e-02  6.6978909983795534e-02  6.7957963053577777e-02  6.7182497191185839e-02  6.4716866852123411e-02  6.0771995589184183e-02  5.5668793232017150e-02  4.9785876272556512e-02  4.3504843742523974e-02  3.7164668997415724e-02  3.1031852098244196e-02  2.5287454038719518e-02  2.0028065440489316e-02  1.5275916334935165e-02  1.0993380459926441e-02  7.0982618224917932e-03  3.4777181007689117e-03  0.0000000000000000e+00  0.0000000000000000e+00  2.9458770022971325e-03  5.9987621447923686e-03  9.2607945173790226e-03  1.2818741450819085e-02  1.6734640554952669e-02  2.1035286149698698e-02  2.5701176173692525e-02  3.0656402647376527e-02  3.5761883970590415e-02  4.0815017848548525e-02  4.5558858826232791e-02  4.9702843914896218e-02  5.2954671337230308e-02  5.5059493111545475e-02  5.5839161938198184e-02  5.5222438221635389e-02  5.3258138663456182e-02  5.0107355128634019e-02  4.6016685288106311e-02  4.1279522258420027e-02  3.6194824842883097e-02  3.1031852098244179e-02  2.6006070193063932e-02  2.1267547461140204e-02  1.6900103597609430e-02  1.2927917028481733e-02  9.3261060328181447e-03  6.0324819894941239e-03  2.9586967969822239e-03  0.0000000000000000e+00  0.0000000000000000e+00  2.4487958134438033e-03  4.9803039042630656e-03  7.6737284349586181e-03  1.0595331383311975e-02  1.3790883413576406e-02  1.7277481254477887e-02  2.1035286149698688e-02  2.5000364760432738e-02  2.9060431700623109e-02  3.3055688091646752e-02  3.6786836063403862e-02  4.0031450575684364e-02  4.2568111406689257e-02  4.4205315736649139e-02  4.4809940003362365e-02  4.4328911857770936e-02  4.2798600537032827e-02  4.0339290038951849e-02  3.7136036902883675e-02  3.3410706214522988e-02  2.9391704396576759e-02  2.5287454038719508e-02  2.1267547461140197e-02  1.7452863787383813e-02  1.3913730244946498e-02  1.0673958127289681e-02  7.7182899613276882e-03  5.0011646030556217e-03  2.4553866120625920e-03  0.0000000000000000e+00  0.0000000000000000e+00  1.9769566280192379e-03  4.0158153870975795e-03  6.1762885380110769e-03  8.5075569831633245e-03  1.1042372966857780e-02  1.3790883413576411e-02  1.6734640554952662e-02  1.9821704002416077e-02  2.2964138252364028e-02  2.6039417963320061e-02  2.8897082463501790e-02  3.1371272948242157e-02  3.3298519050409266e-02  3.4538539356060063e-02  3.4994381067130903e-02  3.4627586335465733e-02  3.3464717047859562e-02  3.1593494031109254e-02  2.9149411907404582e-02  2.6296018245522669e-02  2.3203256780515550e-02  2.0028065440489309e-02  1.6900103597609423e-02  1.3913730244946491e-02  1.1125816012314462e-02  8.5580203312353425e-03  6.2018543107575973e-03  4.0250220941379575e-03  1.9779621311499943e-03  0.0000000000000000e+00  0.0000000000000000e+00  1.5346241563816327e-03  3.1137301012301661e-03  4.7808344657451849e-03  6.5712284438454753e-03  8.5075569831633245e-03  1.0595331383311979e-02  1.2818741450819085e-02  1.5137429374942266e-02  1.7485135320028277e-02  1.9771220244373552e-02  2.1885897580172987e-02  2.3709476969361258e-02  2.5125052505018272e-02  2.6033022716629998e-02  2.6364936377993680e-02  2.6093808697333958e-02  2.5238521787890853e-02  2.3861187754661149e-02  2.2058034197720348e-02  1.9945882385608651e-02  1.7647109750352503e-02  1.5275916334935160e-02  1.292791702848172