<?xml version="1.0"?>
<VTKFile type="UnstructuredGrid"  version="0.1"  >
<UnstructuredGrid>
<Piece  NumberOfPoints="961" NumberOfCells="1800">
<Points>
<DataArray  type="Float64"  NumberOfComponents="3"  format="ascii">-2 -2 0  -1.866666666666667 -2 0  -1.733333333333333 -2 0  -1.6 -2 0  -1.466666666666667 -2 0  -1.333333333333333 -2 0  -1.2 -2 0  -1.066666666666667 -2 0  -0.9333333333333333 -2 0  -0.8 -2 0  -0.6666666666666667 -2 0  -0.5333333333333334 -2 0  -0.3999999999999999 -2 0  -0.2666666666666666 -2 0  -0.1333333333333333 -2 0  0 -2 0  0.1333333333333333 -2 0  0.2666666666666666 -2 0  0.3999999999999999 -2 0  0.5333333333333332 -2 0  0.6666666666666665 -2 0  0.7999999999999998 -2 0  0.9333333333333331 -2 0  1.066666666666667 -2 0  1.2 -2 0  1.333333333333333 -2 0  1.466666666666667 -2 0  1.6 -2 0  1.733333333333333 -2 0  1.866666666666667 -2 0  2 -2 0  -2 -1.866666666666667 0  -1.866666666666667 -1.866666666666667 0  -1.733333333333333 -1.866666666666667 0  -1.6 -1.866666666666667 0  -1.466666666666667 -1.866666666666667 0  -1.333333333333333 -1.866666666666667 0  -1.2 -1.866666666666667 0  -1.066666666666667 -1.866666666666667 0  -0.9333333333333333 -1.866666666666667 0  -0.8 -1.866666666666667 0  -0.6666666666666667 -1.866666666666667 0  -0.5333333333333334 -1.866666666666667 0  -0.3999999999999999 -1.866666666666667 0  -0.2666666666666666 -1.866666666666667 0  -0.1333333333333333 -1.866666666666667 0  0 -1.866666666666667 0  0.1333333333333333 -1.866666666666667 0  0.2666666666666666 -1.866666666666667 0  0.3999999999999999 -1.866666666666667 0  0.5333333333333332 -1.866666666666667 0  0.6666666666666665 -1.866666666666667 0  0.7999999999999998 -1.866666666666667 0  0.9333333333333331 -1.866666666666667 0  1.066666666666667 -1.866666666666667 0  1.2 -1.866666666666667 0  1.333333333333333 -1.866666666666667 0  1.466666666666667 -1.866666666666667 0  1.6 -1.866666666666667 0  1.733333333333333 -1.866666666666667 0  1.866666666666667 -1.866666666666667 0  2 -1.866666666666667 0  -2 -1.733333333333333 0  -1.866666666666667 -1.733333333333333 0  -1.733333333333333 -1.733333333333333 0  -1.6 -1.733333333333333 0  -1.466666666666667 -1.733333333333333 0  -1.333333333333333 -1.733333333333333 0  -1.2 -1.733333333333333 0  -1.066666666666667 -1.733333333333333 0  -0.9333333333333333 -1.733333333333333 0  -0.8 -1.733333333333333 0  -0.6666666666666667 -1.733333333333333 0  -0.5333333333333334 -1.733333333333333 0  -0.3999999999999999 -1.733333333333333 0  -0.2666666666666666 -1.733333333333333 0  -0.1333333333333333 -1.733333333333333 0  0 -1.733333333333333 0  0.1333333333333333 -1.733333333333333 0  0.2666666666666666 -1.733333333333333 0  0.3999999999999999 -1.733333333333333 0  0.5333333333333332 -1.733333333333333 0  0.6666666666666665 -1.733333333333333 0  0.7999999999999998 -1.733333333333333 0  0.9333333333333331 -1.733333333333333 0  1.066666666666667 -1.733333333333333 0  1.2 -1.733333333333333 0  1.333333333333333 -1.733333333333333 0  1.466666666666667 -1.733333333333333 0  1.6 -1.733333333333333 0  1.733333333333333 -1.733333333333333 0  1.866666666666667 -1.733333333333333 0  2 -1.733333333333333 0  -2 -1.6 0  -1.866666666666667 -1.6 0  -1.733333333333333 -1.6 0  -1.6 -1.6 0  -1.466666666666667 -1.6 0  -1.333333333333333 -1.6 0  -1.2 -1.6 0  -1.066666666666667 -1.6 0  -0.9333333333333333 -1.6 0  -0.8 -1.6 0  -0.6666666666666667 -1.6 0  -0.5333333333333334 -1.6 0  -0.3999999999999999 -1.6 0  -0.2666666666666666 -1.6 0  -0.1333333333333333 -1.6 0  0 -1.6 0  0.1333333333333333 -1.6 0  0.2666666666666666 -1.6 0  0.3999999999999999 -1.6 0  0.5333333333333332 -1.6 0  0.6666666666666665 -1.6 0  0.7999999999999998 -1.6 0  0.9333333333333331 -1.6 0  1.066666666666667 -1.6 0  1.2 -1.6 0  1.333333333333333 -1.6 0  1.466666666666667 -1.6 0  1.6 -1.6 0  1.733333333333333 -1.6 0  1.866666666666667 -1.6 0  2 -1.6 0  -2 -1.466666666666667 0  -1.866666666666667 -1.466666666666667 0  -1.733333333333333 -1.466666666666667 0  -1.6 -1.466666666666667 0  -1.466666666666667 -1.466666666666667 0  -1.333333333333333 -1.466666666666667 0  -1.2 -1.466666666666667 0  -1.066666666666667 -1.466666666666667 0  -0.9333333333333333 -1.466666666666667 0  -0.8 -1.466666666666667 0  -0.6666666666666667 -1.466666666666667 0  -0.5333333333333334 -1.466666666666667 0  -0.3999999999999999 -1.466666666666667 0  -0.2666666666666666 -1.466666666666667 0  -0.1333333333333333 -1.466666666666667 0  0 -1.466666666666667 0  0.1333333333333333 -1.466666666666667 0  0.2666666666666666 -1.466666666666667 0  0.3999999999999999 -1.466666666666667 0  0.5333333333333332 -1.466666666666667 0  0.6666666666666665 -1.466666666666667 0  0.7999999999999998 -1.466666666666667 0  0.9333333333333331 -1.466666666666667 0  1.066666666666667 -1.466666666666667 0  1.2 -1.466666666666667 0  1.333333333333333 -1.466666666666667 0  1.466666666666667 -1.466666666666667 0  1.6 -1.466666666666667 0  1.733333333333333 -1.466666666666667 0  1.866666666666667 -1.466666666666667 0  2 -1.466666666666667 0  -2 -1.333333333333333 0  -1.866666666666667 -1.333333333333333 0  -1.733333333333333 -1.333333333333333 0  -1.6 -1.333333333333333 0  -1.466666666666667 -1.333333333333333 0  -1.333333333333333 -1.333333333333333 0  -1.2 -1.333333333333333 0  -1.066666666666667 -1.333333333333333 0  -0.9333333333333333 -1.333333333333333 0  -0.8 -1.333333333333333 0  -0.6666666666666667 -1.333333333333333 0  -0.5333333333333334 -1.333333333333333 0  -0.3999999999999999 -1.333333333333333 0  -0.2666666666666666 -1.333333333333333 0  -0.1333333333333333 -1.333333333333333 0  0 -1.333333333333333 0  0.1333333333333333 -1.333333333333333 0  0.2666666666666666 -1.333333333333333 0  0.3999999999999999 -1.333333333333333 0  0.5333333333333332 -1.333333333333333 0  0.6666666666666665 -1.333333333333333 0  0.7999999999999998 -1.333333333333333 0  0.9333333333333331 -1.333333333333333 0  1.066666666666667 -1.333333333333333 0  1.2 -1.333333333333333 0  1.333333333333333 -1.333333333333333 0  1.466666666666667 -1.333333333333333 0  1.6 -1.333333333333333 0  1.733333333333333 -1.333333333333333 0  1.866666666666667 -1.333333333333333 0  2 -1.333333333333333 0  -2 -1.2 0  -1.866666666666667 -1.2 0  -1.733333333333333 -1.2 0  -1.6 -1.2 0  -1.466666666666667 -1.2 0  -1.333333333333333 -1.2 0  -1.2 -1.2 0  -1.066666666666667 -1.2 0  -0.9333333333333333 -1.2 0  -0.8 -1.2 0  -0.6666666666666667 -1.2 0  -0.5333333333333334 -1.2 0  -0.3999999999999999 -1.2 0  -0.2666666666666666 -1.2 0  -0.1333333333333333 -1.2 0  0 -1.2 0  0.1333333333333333 -1.2 0  0.2666666666666666 -1.2 0  0.3999999999999999 -1.2 0  0.5333333333333332 -1.2 0  0.6666666666666665 -1.2 0  0.7999999999999998 -1.2 0  0.9333333333333331 -1.2 0  1.066666666666667 -1.2 0  1.2 -1.2 0  1.333333333333333 -1.2 0  1.466666666666667 -1.2 0  1.6 -1.2 0  1.733333333333333 -1.2 0  1.866666666666667 -1.2 0  2 -1.2 0  -2 -1.066666666666667 0  -1.866666666666667 -1.066666666666667 0  -1.733333333333333 -1.066666666666667 0  -1.6 -1.066666666666667 0  -1.466666666666667 -1.066666666666667 0  -1.333333333333333 -1.066666666666667 0  -1.2 -1.066666666666667 0  -1.066666666666667 -1.066666666666667 0  -0.9333333333333333 -1.066666666666667 0  -0.8 -1.066666666666667 0  -0.6666666666666667 -1.066666666666667 0  -0.5333333333333334 -1.066666666666667 0  -0.3999999999999999 -1.066666666666667 0  -0.2666666666666666 -1.066666666666667 0  -0.1333333333333333 -1.066666666666667 0  0 -1.066666666666667 0  0.1333333333333333 -1.066666666666667 0  0.2666666666666666 -1.066666666666667 0  0.3999999999999999 -1.066666666666667 0  0.5333333333333332 -1.066666666666667 0  0.6666666666666665 -1.066666666666667 0  0.7999999999999998 -1.066666666666667 0  0.9333333333333331 -1.066666666666667 0  1.066666666666667 -1.066666666666667 0  1.2 -1.066666666666667 0  1.333333333333333 -1.066666666666667 0  1.466666666666667 -1.066666666666667 0  1.6 -1.066666666666667 0  1.733333333333333 -1.066666666666667 0  1.866666666666667 -1.066666666666667 0  2 -1.066666666666667 0  -2 -0.9333333333333333 0  -1.866666666666667 -0.9333333333333333 0  -1.733333333333333 -0.9333333333333333 0  -1.6 -0.9333333333333333 0  -1.466666666666667 -0.9333333333333333 0  -1.333333333333333 -0.9333333333333333 0  -1.2 -0.9333333333333333 0  -1.066666666666667 -0.9333333333333333 0  -0.9333333333333333 -0.9333333333333333 0  -0.8 -0.9333333333333333 0  -0.6666666666666667 -0.9333333333333333 0  -0.5333333333333334 -0.9333333333333333 0  -0.3999999999999999 -0.9333333333333333 0  -0.2666666666666666 -0.9333333333333333 0  -0.1333333333333333 -0.9333333333333333 0  0 -0.9333333333333333 0  0.1333333333333333 -0.9333333333333333 0  0.2666666666666666 -0.9333333333333333 0  0.3999999999999999 -0.9333333333333333 0  0.5333333333333332 -0.9333333333333333 0  0.6666666666666665 -0.9333333333333333 0  0.7999999999999998 -0.9333333333333333 0  0.9333333333333331 -0.9333333333333333 0  1.066666666666667 -0.9333333333333333 0  1.2 -0.9333333333333333 0  1.333333333333333 -0.9333333333333333 0  1.466666666666667 -0.9333333333333333 0  1.6 -0.9333333333333333 0  1.733333333333333 -0.9333333333333333 0  1.866666666666667 -0.9333333333333333 0  2 -0.9333333333333333 0  -2 -0.8 0  -1.866666666666667 -0.8 0  -1.733333333333333 -0.8 0  -1.6 -0.8 0  -1.466666666666667 -0.8 0  -1.333333333333333 -0.8 0  -1.2 -0.8 0  -1.066666666666667 -0.8 0  -0.9333333333333333 -0.8 0  -0.8 -0.8 0  -0.6666666666666667 -0.8 0  -0.5333333333333334 -0.8 0  -0.3999999999999999 -0.8 0  -0.2666666666666666 -0.8 0  -0.1333333333333333 -0.8 0  0 -0.8 0  0.1333333333333333 -0.8 0  0.2666666666666666 -0.8 0  0.3999999999999999 -0.8 0  0.5333333333333332 -0.8 0  0.6666666666666665 -0.8 0  0.7999999999999998 -0.8 0  0.9333333333333331 -0.8 0  1.066666666666667 -0.8 0  1.2 -0.8 0  1.333333333333333 -0.8 0  1.466666666666667 -0.8 0  1.6 -0.8 0  1.733333333333333 -0.8 0  1.866666666666667 -0.8 0  2 -0.8 0  -2 -0.6666666666666667 0  -1.866666666666667 -0.
[...]
<PointData  Scalars="f_578"> 
<DataArray  type="Float64"  Name="f_578"  format="ascii">0.0000000000000000e+00  0.0000000000000000e+00  0.0000000000000000e+00  0.0000000000000000e+00  0.0000000000000000e+00  0.0000000000000000e+00  0.0000000000000000e+00  0.0000000000000000e+00  0.0000000000000000e+00  0.0000000000000000e+00  0.0000000000000000e+00  0.0000000000000000e+00  0.0000000000000000e+00  0.0000000000000000e+00  0.0000000000000000e+00  0.0000000000000000e+00  0.0000000000000000e+00  0.0000000000000000e+00  0.0000000000000000e+00  0.0000000000000000e+00  0.0000000000000000e+00  0.0000000000000000e+00  0.0000000000000000e+00  0.0000000000000000e+00  0.0000000000000000e+00  0.0000000000000000e+00  0.0000000000000000e+00  0.0000000000000000e+00  0.0000000000000000e+00  0.0000000000000000e+00  0.0000000000000000e+00  0.0000000000000000e+00  1.2529497537646633e-04  2.6006331705044107e-04  4.1166713151580573e-04  5.8713337752544514e-04  7.9237655932852568e-04  1.0312962400623755e-03  1.3046948896213819e-03  1.6091151498034743e-03  1.9358362078796521e-03  2.2703884685668064e-03  2.5929899991567465e-03  2.8802073143492880e-03  3.1078567528346869e-03  3.2547359074656819e-03  3.3063625988345425e-03  3.2577164302162631e-03  3.1141739049146142e-03  2.8903659290424213e-03  2.6073367060168999e-03  2.2888538827775780e-03  1.9578321214824244e-03  1.6336049972921656e-03  1.3303797226593022e-03  1.0568272920553875e-03  8.1651729827735768e-04  6.0882578150821840e-04  4.2998412509795056e-04  2.7403350316066637e-04  1.3354462200909978e-04  0.0000000000000000e+00  0.0000000000000000e+00  2.6006331705044107e-04  5.3956614521755847e-04  8.5493176485545021e-04  1.2216231026084630e-03  1.6528061154985375e-03  2.1575021791516605e-03  2.7382308973511542e-03  3.3883733090100117e-03  4.0897825489269917e-03  4.8114609196547977e-03  5.5102676861264951e-03  6.1344367411566691e-03  6.6300406444356292e-03  6.9495147326389672e-03  7.0603211304316547e-03  6.9513376477114367e-03  6.6350050648228305e-03  6.1445837913136807e-03  5.5274694077358426e-03  4.8366455928396824e-03  4.1225696650285994e-03  3.4271720639603384e-03  2.7806545621584817e-03  2.2008728703566869e-03  1.6945594429027041e-03  1.2595072242118420e-03  8.8697119111370664e-04  5.6379644579078697e-04  2.7403350316066637e-04  0.0000000000000000e+00  0.0000000000000000e+00  4.1166713151580563e-04  8.5493176485545021e-04  1.3578175381833441e-03  1.9469359531653408e-03  2.6455199021481932e-03  3.4704274295168820e-03  4.4280762779765580e-03  5.5096460080587698e-03  6.6864286312629971e-03  7.9068119892193797e-03  9.0967787926869697e-03  1.0165603983600981e-02  1.1017297017763009e-02  1.1566321396931312e-02  1.1753943577891212e-02  1.1560409198041506e-02  1.1008964651997718e-02  1.0160434186697671e-02  9.1003487492795111e-03  7.9228592549654593e-03  6.7159403066374352e-03  5.5509766362665195e-03  4.4777565616136239e-03  3.5241775737286760e-03  2.6990799149028792e-03  1.9965188485664099e-03  1.4001555596760105e-03  8.8697119111370642e-04  4.2998412509795045e-04  0.0000000000000000e+00  0.0000000000000000e+00  5.8713337752544492e-04  1.2216231026084630e-03  1.9469359531653410e-03  2.8050821641364813e-03  3.8339748263784479e-03  5.0629893408988486e-03  6.5065056087372265e-03  8.1557932912986967e-03  9.9705334274143922e-03  1.1872442756120890e-02  1.3744443973495366e-02  1.5438819510178068e-02  1.6795975958267539e-02  1.7671700857286959e-02  1.7966383799920931e-02  1.7647079372365759e-02  1.6754666277717871e-02  1.5393638492577704e-02  1.3708563828115562e-02  1.1855473395326079e-02  9.9765956965474963e-03  8.1837312097740936e-03  6.5514726547960308e-03  5.1184043567150507e-03  3.8931087592844076e-03  2.8619542983231092e-03  1.9965188485664099e-03  1.2595072242118418e-03  6.0882578150821818e-04  0.0000000000000000e+00  0.0000000000000000e+00  7.9237655932852535e-04  1.6528061154985375e-03  2.6455199021481923e-03  3.8339748263784470e-03  5.2776135337138531e-03  7.0256711992497936e-03  9.1074083129045452e-03  1.1518950583627365e-02  1.4208422287369469e-02  1.7063229363929431e-02  1.9905536883751088e-02  2.2502707754559748e-02  2.4596847356018751e-02  2.5950855222538281e-02  2.6399640640267421e-02  2.5889457938970385e-02  2.4490474090096446e-02  2.2377896958131846e-02  1.9789697558970785e-02  1.6976823093505376e-02  1.4161302113960956e-02  1.1510949342052813e-02  9.1314781270265752e-03  7.0715646076991746e-03  5.3347657988980944e-03  3.8931087592844068e-03  2.6990799149028792e-03  1.6945594429027041e-03  8.1651729827735735e-04  0.0000000000000000e+00  0.0000000000000000e+00  1.0312962400623755e-03  2.1575021791516609e-03  3.4704274295168825e-03  5.0629893408988477e-03  7.0256711992497901e-03  9.4383789909514640e-03  1.2356298547376075e-02  1.5789329144652409e-02  1.9676936744781773e-02  2.3864079015502755e-02  2.8088398469260277e-02  3.1991521043733789e-02  3.5164002595936196e-02  3.7221708562542172e-02  3.7894431820026976e-02  3.7095347130234893e-02  3.4942968868257963e-02  3.1726771864881417e-02  2.7832210124495268e-02  2.3655325870734271e-02  1.9534713941752456e-02  1.5714635004045494e-02  1.2338155348257617e-02  9.4605322329901625e-03  7.0715646076991781e-03  5.1184043567150542e-03  3.5241775737286777e-03  2.2008728703566882e-03  1.0568272920553877e-03  0.0000000000000000e+00  0.0000000000000000e+00  1.3046948896213810e-03  2.7382308973511516e-03  4.4280762779765554e-03  6.5065056087372196e-03  9.1074083129045399e-03  1.2356298547376070e-02  1.6350780670075848e-02  2.1129661891592773e-02  2.6632036582875208e-02  3.2653972097535788e-02  3.8819224928253654e-02  4.4587344187416868e-02  4.9319451973691579e-02  5.2402294439558308e-02  5.3399128265695039e-02  5.2170759403660720e-02  4.8913706549937326e-02  4.4098849854508501e-02  3.8340610131092426e-02  3.2252902681139305e-02  2.6340984903169499e-02  2.0950156836001235e-02  1.6264863183330810e-02  1.2338155348257614e-02  9.1314781270265752e-03  6.5514726547960308e-03  4.4777565616136222e-03  2.7806545621584808e-03  1.3303797226593022e-03  0.0000000000000000e+00  0.0000000000000000e+00  1.6091151498034734e-03  3.3883733090100099e-03  5.5096460080587663e-03  8.1557932912986915e-03  1.1518950583627355e-02  1.5789329144652392e-02  2.1129661891592773e-02  2.7630855377820791e-02  3.5248264192397669e-02  4.3727773107306883e-02  5.2546762444844630e-02  6.0910427617555017e-02  6.7843537837216167e-02  7.2386356908013441e-02  7.3845414131358408e-02  7.1999936103335313e-02  6.7167441721899354e-02  6.0097626761490490e-02  5.1749747274211055e-02  4.3055176297054992e-02  3.4749793635166108e-02  2.7306586092678563e-02  2.0950156836001221e-02  1.5714635004045477e-02  1.1510949342052806e-02  8.1837312097740884e-03  5.5509766362665152e-03  3.4271720639603349e-03  1.6336049972921652e-03  0.0000000000000000e+00  0.0000000000000000e+00  1.9358362078796517e-03  4.0897825489269899e-03  6.6864286312629953e-03  9.9705334274143888e-03  1.4208422287369460e-02  1.9676936744781756e-02  2.6632036582875208e-02  3.5248264192397669e-02  4.5524275006233565e-02  5.7163689894044321e-02  6.9467206700372749e-02  8.1302204286810786e-02  9.1223305400900845e-02  9.7770456013998364e-02  9.9871316264235829e-02  9.7181841906540917e-02  9.0196641714079803e-02  8.0073399578403398e-02  6.8267574353185506e-02  5.6153447348772700e-02  4.4772329119936193e-02  3.4749793635166136e-02  2.6340984903169492e-02  1.9534713941752442e-02  1.4161302113960954e-02  9.9765956965474946e-03  6.7159403066374334e-03  4.1225696650285977e-03  1.9578321214824244e-03  0.0000000000000000e+00  0.0000000000000000e+00  2.2703884685668055e-03  4.8114609196547968e-03  7.9068119892193728e-03  1.1872442756120883e-02  1.7063229363929431e-02  2.3864079015502748e-02  3.2653972097535781e-02  4.3727773107306876e-02  5.7163689894044328e-02  7.2642894033908653e-02  8.9269280914003740e-02  1.0549088430706617e-01  1.1924719242731190e-01  1.2840146107858300e-01  1.3135643903229102e-01  1.2759077417529452e-01  1.1783826804520676e-01  1.0381380586324823e-01  8.7642680795499930e-02  7.1281392791289186e-02  5.6153447348772714e-02  4.3055176297055027e-02  3.2252902681139298e-02  2.3655325870734253e-02  1.6976823093505379e-02  1.1855473395326083e-02  7.9228592549654628e-03  4.8366455928396850e-03  2.2888538827775789e-03  0.0000000000000000e+00  0.0000000000000000e+00  2.5929899991567465e-03  5.5102676861264951e-03  9.0967787926869645e-03  1.3744443973495358e-02  1.9905536883751081e-02  2.8088398469260277e-02  3.8819224928253647e-02  5.2546762444844616e-02  6.9467206700372736e-02  8.9269280914003699e-02  1.1085883461576319e-01  1.3220753501101815e-01  1.5051827542056276e-01  1.6281671378202456e-01  1.6683862005782524e-01  1.6182556649075822e-01  1.4880167770836772e-01  1.3017533408090345e-01  1.0890129105065662e-01  8.7642680795499917e-02  6.8267574353185534e-02  5.1749747274211104e-02  3.8340610131092426e-02  2.7832210124495257e-02  1.9789697558970802e-02  1.3708563828115562e-02  9.1003487492795198e-03  5.5274694077358487e-03  2.6073367060169017e-03  0.0000000000000000e+00  0.0000000000000000e+00  2.8802073143492884e-03  6.1344367411566691e-03  1.0165603983600975e-02  1.5438819510178057e-02  2.2502707754559731e-02  3.1991521043733775e-02  4.4587344187416847e-02  6.0910427617554976e-02  8.1302204286810745e-02  1.0549088430706612e-01  1.3220753501101806e-01  1.5894271789987266e-01  1.8211570190982693e-01  1.9783116915209095e-01  2.0307012765605620e-01  1.9678794423380011e-01  1.8031422882274820e-01  1.5682006937794754e-01  1.3017533408090351e-01  1.0381380586324829e-01  8.0073399578403481e-02  6.0097626761490573e-02  4.4098849854508536e-02  3.1726771864881417e-02  2.2377896958131874e-02  1.5393638492577721e-02  1.0160434186697688e-02  6.1445837913136903e-03  2.8903659290424239e-03  0.0000000000000000e+00  0.0000000000000000e+00  3.1078567528346878e-03  6.6300406444356292e-03  1.1017297017763003e-02  1.6795975958267519e-02  2.4596847356018726e-02  3.5164002595936154e-02  4.9319451973691530e-02  6.7843537837216084e-02  9.1223305400900762e-02  1.1924719242731177e-01  1.5051827542056265e-01  1.8211570190982687e-01  2.0975238755929482e-01  2.2867365645103821e-01  2.3513215111569799e-01  2.2778314012347300e-01  2.0821801764914441e-01  1.8031422882274808e-01  1.4880167770836766e-01  1.1783826804520676e-01  9.0196641714079831e-02  6.7167441721899410e-02  4.8913706549937333e-02  3.4942968868257943e-02  2.4490474090096453e-02  1.6754666277717881e-02  1.1008964651997718e-02  6.6350050648228331e-03  3.1141739049146151e-03  0.0000000000000000e+00  0.0000000000000000e+00  3.2547359074656819e-03  6.9495147326389690e-03  1.1566321396931310e-02  1.7671700857286941e-02  2.5950855222538247e-02  3.7221708562542123e-02  5.2402294439558253e-02  7.2386356908013358e-02  9.7770456013998253e-02  1.2840146107858286e-01  1.6281671378202436e-01  1.9783116915209079e-01  2.2867365645103810e-01  2.4997331396130315e-01  2.5743420705805603e-01  2.4945577148799264e-01  2.2778314012347298e-01  1.9678794423379994e-01  1.6182556649075822e-01  1.2759077417529449e-01  9.7181841906540903e-02  7.1999936103335369e-02  5.2170759403660706e-02  3.7095347130234858e-02  2.5889457938970378e-02  1.7647079372365759e-02  1.1560409198041501e-02  6.9513376477114367e-03  3.2577164302162631e-03  0.0000000000000000e+00  0.0000000000000000e+00  3.3063625988345412e-03  7.0603211304316521e-03  1.1753943577891203e-02  1.7966383799920913e-02  2.6399640640267386e-02  3.7894431820026914e-02  5.3399128265694963e-02  7.3845414131358367e-02  9.9871316264235732e-02  1.3135643903229091e-01  1.6683862005782510e-01  2.0307012765605606e-01  2.3513215111569788e-01  2.5743420705805597e-01  2.6545095771005767e-01  2.5743420705805597e-01  2.3513215111569788e-01  2.0307012765605598e-01  1.6683862005782504e-01  1.3135643903229094e-01  9.9871316264235774e-02  7.3845414131358436e-02  5.3399128265694984e-02  3.7894431820026928e-02  2.6399640640267400e-02  1.7966383799920920e-02  1.1753943577891205e-02  7.0603211304316521e-03  3.3063625988345412e-03  0.0000000000000000e+00  0.0000000000000000e+00  3.2577164302162601e-03  6.9513376477114315e-03  1.1560409198041490e-02  1.7647079372365738e-02  2.5889457938970354e-02  3.7095347130234851e-02  5.2170759403660692e-02  7.1999936103335271e-02  9.7181841906540833e-02  1.2759077417529441e-01  1.6182556649075810e-01  1.9678794423379994e-01  2.2778314012347292e-01  2.4945577148799250e-01  2.5743420705805592e-01  2.4997331396130307e-01  2.2867365645103810e-01  1.9783116915209065e-01  1.6281671378202431e-01  1.2840146107858288e-01  9.7770456013998336e-02  7.2386356908013455e-02  5.2402294439558274e-02  3.7221708562542116e-02  2.5950855222538257e-02  1.7671700857286948e-02  1.1566321396931308e-02  6.9495147326389646e-03  3.2547359074656798e-03  0.0000000000000000e+00  0.0000000000000000e+00  3.1141739049146112e-03  6.6350050648228236e-03  1.1008964651997707e-02  1.6754666277717850e-02  2.4490474090096422e-02  3.4942968868257936e-02  4.8913706549937319e-02  6.7167441721899313e-02  9.0196641714079720e-02  1.1783826804520663e-01  1.4880167770836761e-01  1.8031422882274808e-01  2.0821801764914435e-01  2.2778314012347284e-01  2.3513215111569791e-01  2.2867365645103810e-01  2.0975238755929471e-01  1.8211570190982665e-01  1.5051827542056256e-01  1.1924719242731183e-01  9.1223305400900817e-02  6.7843537837216167e-02  4.9319451973691510e-02  3.5164002595936134e-02  2.4596847356018726e-02  1.6795975958267522e-02  1.1017297017763000e-02  6.6300406444356240e-03  3.1078567528346843e-03  0.0000000000000000e+00  0.0000000000000000e+00  2.8903659290424183e-03  6.1445837913136772e-03  1.0160434186697664e-02  1.5393638492577692e-02  2.2377896958131836e-02  3.1726771864881383e-02  4.4098849854508466e-02  6.0097626761490427e-02  8.0073399578403315e-02  1.0381380586324808e-01  1.3017533408090332e-01  1.5682006937794740e-01  1.8031422882274806e-01  1.9678794423379986e-01  2.0307012765605598e-01  1.9783116915209067e-01  1.8211570190982676e-01  1.5894271789987255e-01  1.3220753501101801e-01  1.0549088430706610e-01  8.1302204286810731e-02  6.0910427617555003e-02  4.4587344187416798e-02  3.1991521043733734e-02  2.2502707754559724e-02  1.5438819510178049e-02  1.0165603983600965e-02  6.1344367411566604e-03  2.8802073143492845e-03  0.0000000000000000e+00  0.0000000000000000e+00  2.6073367060168973e-03  5.5274694077358383e-03  9.1003487492795042e-03  1.3708563828115547e-02  1.9789697558970767e-02  2.7832210124495240e-02  3.8340610131092363e-02  5.1749747274210979e-02  6.8267574353185423e-02  8.7642680795499778e-02  1.0890129105065649e-01  1.3017533408090337e-01  1.4880167770836758e-01  1.6182556649075816e-01  1.6683862005782510e-01  1.6281671378202434e-01  1.5051827542056259e-01  1.3220753501101798e-01  1.1085883461576311e-01  8.9269280914003685e-02  6.9467206700372722e-02  5.2546762444844637e-02  3.8819224928253633e-02  2.8088398469260246e-02  1.9905536883751067e-02  1.3744443973495352e-02  9.0967787926869593e-03  5.5102676861264865e-03  2.5929899991567434e-03  0.0000000000000000e+00  0.0000000000000000e+00  2.2888538827775745e-03  4.8366455928396754e-03  7.9228592549654506e-03  1.1855473395326065e-02  1.6976823093505355e-02  2.3655325870734233e-02  3.2252902681139256e-02  4.3055176297054923e-02  5.6153447348772624e-02  7.1281392791289089e-02  8.7642680795499792e-02  1.0381380586324815e-01  1.1783826804520665e-01  1.2759077417529441e-01  1.3135643903229091e-01  1.2840146107858286e-01  1.1924719242731172e-01  1.0549088430706600e-01  8.9269280914003629e-02  7.2642894033908584e-02  5.7163689894044273e-02  4.3727773107306883e-02  3.2653972097535761e-02  2.3864079015502717e-02  1.7063229363929421e-02  1.1872442756120880e-02  7.9068119892193710e-03  4.8114609196547925e-03  2.2703884685668042e-03  0.0000000000000000e+00  0.0000000000000000e+00  1.9578321214824205e-03  4.1225696650285916e-03  6.7159403066374248e-03  9.9765956965474807e-03  1.4161302113960942e-02  1.9534713941752432e-02  2.6340984903169457e-02  3.4749793635166060e-02  4.4772329119936130e-02  5.6153447348772638e-02  6.8267574353185492e-02  8.0073399578403384e-02  9.0196641714079720e-02  9.7181841906540792e-02  9.9871316264235732e-02  9.7770456013998280e-02  9.1223305400900706e-02  8.1302204286810648e-02  6.9467206700372666e-02  5.7163689894044259e-02  4.5524275006233531e-02  3.5248264192397669e-02  2.6632036582875183e-02  1.9676936744781735e-02  1.4208422287369451e-02  9.9705334274143870e-03  6.6864286312629953e-03  4.0897825489269891e-03  1.9358362078796506e-03  0.0000000000000000e+00  0.0000000000000000e+00  1.6336049972921626e-03  3.4271720639603306e-03  5.5509766362665056e-03  8.1837312097740780e-03  1.1510949342052797e-02  1.5714635004045470e-02  2.0950156836001196e-02  2.7306586092678511e-02  3.4749793635166080e-02  4.3055176297054958e-02  5.1749747274211035e-02  6.0097626761490490e-02  6.7167441721899313e-02  7.1999936103335258e-02  7.3845414131358367e-02  7.2386356908013358e-02  6.7843537837216070e-02  6.0910427617554913e-02  5.2546762444844589e-02  4.3727773107306842e-02  3.5248264192397648e-02  2.7630855377820788e-02  2.1129661891592755e-02  1.5789329144652375e-02  1.1518950583627351e-02  8.1557932912986898e-03  5.5096460080587681e-03  3.3883733090100095e-03  1.6091151498034727e-03  0.0000000000000000e+00  0.0000000000000000e+00  1.3303797226592996e-03  2.7806545621584756e-03  4.4777565616136144e-03  6.5514726547960178e-03  9.1314781270265596e-03  1.2338155348257600e-02  1.6264863183330782e-02  2.0950156836001186e-02  2.6340984903169440e-02  3.2252902681139256e-02  3.8340610131092370e-02  4.4098849854508460e-02  4.8913706549937250e-02  5.2170759403660644e-02  5.3399128265694935e-02  5.2402294439558218e-02  4.9319451973691468e-02  4.4587344187416764e-02  3.8819224928253585e-02  3.2653972097535740e-02  2.6632036582875170e-02  2.1129661891592755e-02  1.6350780670075823e-02  1.2356298547376049e-02  9.1074083129045278e-03  6.5065056087372144e-03  4.4280762779765510e-03  2.7382308973511486e-03  1.3046948896213797e-03  0.0000000000000000e+00  0.0000000000000000e+00  1.0568272920553851e-03  2.2008728703566825e-03  3.5241775737286682e-03  5.1184043567150395e-03  7.0715646076991608e-03  9.4605322329901435e-03  1.2338155348257589e-02  1.5714635004045453e-02  1.9534713941752414e-02  2.3655325870734219e-02  2.7832210124495223e-02  3.1726771864881355e-02  3.4942968868257880e-02  3.7095347130234803e-02  3.7894431820026879e-02  3.7221708562542075e-02  3.5164002595936099e-02  3.1991521043733706e-02  2.8088398469260225e-02  2.3864079015502703e-02  1.9676936744781728e-02  1.5789329144652375e-02  1.2356298547376044e-02  9.4383789909514397e-03  7.0256711992497762e-03  5.0629893408988399e-03  3.4704274295168759e-03  2.1575021791516553e-03  1.0312962400623733e-03  0.0000000000000000e+00  0.0000000000000000e+00  8.1651729827735583e-04  1.6945594429027002e-03  2.6990799149028736e-03  3.8931087592843985e-03  5.3347657988980848e-03  7.0715646076991642e-03  9.1314781270265561e-03  1.1510949342052785e-02  1.4161302113960926e-02  1.6976823093505348e-02  1.9789697558970754e-02  2.2377896958131818e-02  2.4490474090096383e-02  2.5889457938970337e-02  2.6399640640267355e-02  2.5950855222538208e-02  2.4596847356018685e-02  2.2502707754559689e-02  1.9905536883751043e-02  1.7063229363929400e-02  1.4208422287369443e-02  1.1518950583627346e-02  9.1074083129045226e-03  7.0256711992497745e-03  5.2776135337138418e-03  3.8339748263784413e-03  2.6455199021481880e-03  1.6528061154985339e-03  7.9237655932852405e-04  0.0000000000000000e+00  0.0000000000000000e+00  6.0882578150821699e-04  1.2595072242118392e-03  1.9965188485664060e-03  2.8619542983231035e-03  3.8931087592843990e-03  5.1184043567150421e-03  6.5514726547960169e-03  8.1837312097740710e-03  9.9765956965474720e-03  1.1855473395326062e-02  1.3708563828115541e-02  1.5393638492577683e-02  1.6754666277717833e-02  1.7647079372365725e-02  1.7966383799920889e-02  1.7671700857286914e-02  1.6795975958267494e-02  1.5438819510178024e-02  1.3744443973495330e-02  1.1872442756120864e-02  9.9705334274143766e-03  8.1557932912986863e-03  6.506505608737212