<?xml version="1.0"?>
<VTKFile type="UnstructuredGrid"  version="0.1"  >
<UnstructuredGrid>
<Piece  NumberOfPoints="961" NumberOfCells="1800">
<Points>
<DataArray  type="Float64"  NumberOfComponents="3"  format="ascii">-2 -2 0  -1.866666666666667 -2 0  -1.733333333333333 -2 0  -1.6 -2 0  -1.466666666666667 -2 0  -1.333333333333333 -2 0  -1.2 -2 0  -1.066666666666667 -2 0  -0.9333333333333333 -2 0  -0.8 -2 0  -0.6666666666666667 -2 0  -0.5333333333333334 -2 0  -0.3999999999999999 -2 0  -0.2666666666666666 -2 0  -0.1333333333333333 -2 0  0 -2 0  0.1333333333333333 -2 0  0.2666666666666666 -2 0  0.3999999999999999 -2 0  0.5333333333333332 -2 0  0.6666666666666665 -2 0  0.7999999999999998 -2 0  0.9333333333333331 -2 0  1.066666666666667 -2 0  1.2 -2 0  1.333333333333333 -2 0  1.466666666666667 -2 0  1.6 -2 0  1.733333333333333 -2 0  1.866666666666667 -2 0  2 -2 0  -2 -1.866666666666667 0  -1.866666666666667 -1.866666666666667 0  -1.733333333333333 -1.866666666666667 0  -1.6 -1.866666666666667 0  -1.466666666666667 -1.866666666666667 0  -1.333333333333333 -1.866666666666667 0  -1.2 -1.866666666666667 0  -1.066666666666667 -1.866666666666667 0  -0.9333333333333333 -1.866666666666667 0  -0.8 -1.866666666666667 0  -0.6666666666666667 -1.866666666666667 0  -0.5333333333333334 -1.866666666666667 0  -0.3999999999999999 -1.866666666666667 0  -0.2666666666666666 -1.866666666666667 0  -0.1333333333333333 -1.866666666666667 0  0 -1.866666666666667 0  0.1333333333333333 -1.866666666666667 0  0.2666666666666666 -1.866666666666667 0  0.3999999999999999 -1.866666666666667 0  0.5333333333333332 -1.866666666666667 0  0.6666666666666665 -1.866666666666667 0  0.7999999999999998 -1.866666666666667 0  0.9333333333333331 -1.866666666666667 0  1.066666666666667 -1.866666666666667 0  1.2 -1.866666666666667 0  1.333333333333333 -1.866666666666667 0  1.466666666666667 -1.866666666666667 0  1.6 -1.866666666666667 0  1.733333333333333 -1.866666666666667 0  1.866666666666667 -1.866666666666667 0  2 -1.866666666666667 0  -2 -1.733333333333333 0  -1.866666666666667 -1.733333333333333 0  -1.733333333333333 -1.733333333333333 0  -1.6 -1.733333333333333 0  -1.466666666666667 -1.733333333333333 0  -1.333333333333333 -1.733333333333333 0  -1.2 -1.733333333333333 0  -1.066666666666667 -1.733333333333333 0  -0.9333333333333333 -1.733333333333333 0  -0.8 -1.733333333333333 0  -0.6666666666666667 -1.733333333333333 0  -0.5333333333333334 -1.733333333333333 0  -0.3999999999999999 -1.733333333333333 0  -0.2666666666666666 -1.733333333333333 0  -0.1333333333333333 -1.733333333333333 0  0 -1.733333333333333 0  0.1333333333333333 -1.733333333333333 0  0.2666666666666666 -1.733333333333333 0  0.3999999999999999 -1.733333333333333 0  0.5333333333333332 -1.733333333333333 0  0.6666666666666665 -1.733333333333333 0  0.7999999999999998 -1.733333333333333 0  0.9333333333333331 -1.733333333333333 0  1.066666666666667 -1.733333333333333 0  1.2 -1.733333333333333 0  1.333333333333333 -1.733333333333333 0  1.466666666666667 -1.733333333333333 0  1.6 -1.733333333333333 0  1.733333333333333 -1.733333333333333 0  1.866666666666667 -1.733333333333333 0  2 -1.733333333333333 0  -2 -1.6 0  -1.866666666666667 -1.6 0  -1.733333333333333 -1.6 0  -1.6 -1.6 0  -1.466666666666667 -1.6 0  -1.333333333333333 -1.6 0  -1.2 -1.6 0  -1.066666666666667 -1.6 0  -0.9333333333333333 -1.6 0  -0.8 -1.6 0  -0.6666666666666667 -1.6 0  -0.5333333333333334 -1.6 0  -0.3999999999999999 -1.6 0  -0.2666666666666666 -1.6 0  -0.1333333333333333 -1.6 0  0 -1.6 0  0.1333333333333333 -1.6 0  0.2666666666666666 -1.6 0  0.3999999999999999 -1.6 0  0.5333333333333332 -1.6 0  0.6666666666666665 -1.6 0  0.7999999999999998 -1.6 0  0.9333333333333331 -1.6 0  1.066666666666667 -1.6 0  1.2 -1.6 0  1.333333333333333 -1.6 0  1.466666666666667 -1.6 0  1.6 -1.6 0  1.733333333333333 -1.6 0  1.866666666666667 -1.6 0  2 -1.6 0  -2 -1.466666666666667 0  -1.866666666666667 -1.466666666666667 0  -1.733333333333333 -1.466666666666667 0  -1.6 -1.466666666666667 0  -1.466666666666667 -1.466666666666667 0  -1.333333333333333 -1.466666666666667 0  -1.2 -1.466666666666667 0  -1.066666666666667 -1.466666666666667 0  -0.9333333333333333 -1.466666666666667 0  -0.8 -1.466666666666667 0  -0.6666666666666667 -1.466666666666667 0  -0.5333333333333334 -1.466666666666667 0  -0.3999999999999999 -1.466666666666667 0  -0.2666666666666666 -1.466666666666667 0  -0.1333333333333333 -1.466666666666667 0  0 -1.466666666666667 0  0.1333333333333333 -1.466666666666667 0  0.2666666666666666 -1.466666666666667 0  0.3999999999999999 -1.466666666666667 0  0.5333333333333332 -1.466666666666667 0  0.6666666666666665 -1.466666666666667 0  0.7999999999999998 -1.466666666666667 0  0.9333333333333331 -1.466666666666667 0  1.066666666666667 -1.466666666666667 0  1.2 -1.466666666666667 0  1.333333333333333 -1.466666666666667 0  1.466666666666667 -1.466666666666667 0  1.6 -1.466666666666667 0  1.733333333333333 -1.466666666666667 0  1.866666666666667 -1.466666666666667 0  2 -1.466666666666667 0  -2 -1.333333333333333 0  -1.866666666666667 -1.333333333333333 0  -1.733333333333333 -1.333333333333333 0  -1.6 -1.333333333333333 0  -1.466666666666667 -1.333333333333333 0  -1.333333333333333 -1.333333333333333 0  -1.2 -1.333333333333333 0  -1.066666666666667 -1.333333333333333 0  -0.9333333333333333 -1.333333333333333 0  -0.8 -1.333333333333333 0  -0.6666666666666667 -1.333333333333333 0  -0.5333333333333334 -1.333333333333333 0  -0.3999999999999999 -1.333333333333333 0  -0.2666666666666666 -1.333333333333333 0  -0.1333333333333333 -1.333333333333333 0  0 -1.333333333333333 0  0.1333333333333333 -1.333333333333333 0  0.2666666666666666 -1.333333333333333 0  0.3999999999999999 -1.333333333333333 0  0.5333333333333332 -1.333333333333333 0  0.6666666666666665 -1.333333333333333 0  0.7999999999999998 -1.333333333333333 0  0.9333333333333331 -1.333333333333333 0  1.066666666666667 -1.333333333333333 0  1.2 -1.333333333333333 0  1.333333333333333 -1.333333333333333 0  1.466666666666667 -1.333333333333333 0  1.6 -1.333333333333333 0  1.733333333333333 -1.333333333333333 0  1.866666666666667 -1.333333333333333 0  2 -1.333333333333333 0  -2 -1.2 0  -1.866666666666667 -1.2 0  -1.733333333333333 -1.2 0  -1.6 -1.2 0  -1.466666666666667 -1.2 0  -1.333333333333333 -1.2 0  -1.2 -1.2 0  -1.066666666666667 -1.2 0  -0.9333333333333333 -1.2 0  -0.8 -1.2 0  -0.6666666666666667 -1.2 0  -0.5333333333333334 -1.2 0  -0.3999999999999999 -1.2 0  -0.2666666666666666 -1.2 0  -0.1333333333333333 -1.2 0  0 -1.2 0  0.1333333333333333 -1.2 0  0.2666666666666666 -1.2 0  0.3999999999999999 -1.2 0  0.5333333333333332 -1.2 0  0.6666666666666665 -1.2 0  0.7999999999999998 -1.2 0  0.9333333333333331 -1.2 0  1.066666666666667 -1.2 0  1.2 -1.2 0  1.333333333333333 -1.2 0  1.466666666666667 -1.2 0  1.6 -1.2 0  1.733333333333333 -1.2 0  1.866666666666667 -1.2 0  2 -1.2 0  -2 -1.066666666666667 0  -1.866666666666667 -1.066666666666667 0  -1.733333333333333 -1.066666666666667 0  -1.6 -1.066666666666667 0  -1.466666666666667 -1.066666666666667 0  -1.333333333333333 -1.066666666666667 0  -1.2 -1.066666666666667 0  -1.066666666666667 -1.066666666666667 0  -0.9333333333333333 -1.066666666666667 0  -0.8 -1.066666666666667 0  -0.6666666666666667 -1.066666666666667 0  -0.5333333333333334 -1.066666666666667 0  -0.3999999999999999 -1.066666666666667 0  -0.2666666666666666 -1.066666666666667 0  -0.1333333333333333 -1.066666666666667 0  0 -1.066666666666667 0  0.1333333333333333 -1.066666666666667 0  0.2666666666666666 -1.066666666666667 0  0.3999999999999999 -1.066666666666667 0  0.5333333333333332 -1.066666666666667 0  0.6666666666666665 -1.066666666666667 0  0.7999999999999998 -1.066666666666667 0  0.9333333333333331 -1.066666666666667 0  1.066666666666667 -1.066666666666667 0  1.2 -1.066666666666667 0  1.333333333333333 -1.066666666666667 0  1.466666666666667 -1.066666666666667 0  1.6 -1.066666666666667 0  1.733333333333333 -1.066666666666667 0  1.866666666666667 -1.066666666666667 0  2 -1.066666666666667 0  -2 -0.9333333333333333 0  -1.866666666666667 -0.9333333333333333 0  -1.733333333333333 -0.9333333333333333 0  -1.6 -0.9333333333333333 0  -1.466666666666667 -0.9333333333333333 0  -1.333333333333333 -0.9333333333333333 0  -1.2 -0.9333333333333333 0  -1.066666666666667 -0.9333333333333333 0  -0.9333333333333333 -0.9333333333333333 0  -0.8 -0.9333333333333333 0  -0.6666666666666667 -0.9333333333333333 0  -0.5333333333333334 -0.9333333333333333 0  -0.3999999999999999 -0.9333333333333333 0  -0.2666666666666666 -0.9333333333333333 0  -0.1333333333333333 -0.9333333333333333 0  0 -0.9333333333333333 0  0.1333333333333333 -0.9333333333333333 0  0.2666666666666666 -0.9333333333333333 0  0.3999999999999999 -0.9333333333333333 0  0.5333333333333332 -0.9333333333333333 0  0.6666666666666665 -0.9333333333333333 0  0.7999999999999998 -0.9333333333333333 0  0.9333333333333331 -0.9333333333333333 0  1.066666666666667 -0.9333333333333333 0  1.2 -0.9333333333333333 0  1.333333333333333 -0.9333333333333333 0  1.466666666666667 -0.9333333333333333 0  1.6 -0.9333333333333333 0  1.733333333333333 -0.9333333333333333 0  1.866666666666667 -0.9333333333333333 0  2 -0.9333333333333333 0  -2 -0.8 0  -1.866666666666667 -0.8 0  -1.733333333333333 -0.8 0  -1.6 -0.8 0  -1.466666666666667 -0.8 0  -1.333333333333333 -0.8 0  -1.2 -0.8 0  -1.066666666666667 -0.8 0  -0.9333333333333333 -0.8 0  -0.8 -0.8 0  -0.6666666666666667 -0.8 0  -0.5333333333333334 -0.8 0  -0.3999999999999999 -0.8 0  -0.2666666666666666 -0.8 0  -0.1333333333333333 -0.8 0  0 -0.8 0  0.1333333333333333 -0.8 0  0.2666666666666666 -0.8 0  0.3999999999999999 -0.8 0  0.5333333333333332 -0.8 0  0.6666666666666665 -0.8 0  0.7999999999999998 -0.8 0  0.9333333333333331 -0.8 0  1.066666666666667 -0.8 0  1.2 -0.8 0  1.333333333333333 -0.8 0  1.466666666666667 -0.8 0  1.6 -0.8 0  1.733333333333333 -0.8 0  1.866666666666667 -0.8 0  2 -0.8 0  -2 -0.6666666666666667 0  -1.866666666666667 -0.
[...]
<PointData  Scalars="f_578"> 
<DataArray  type="Float64"  Name="f_578"  format="ascii">0.0000000000000000e+00  0.0000000000000000e+00  0.0000000000000000e+00  0.0000000000000000e+00  0.0000000000000000e+00  0.0000000000000000e+00  0.0000000000000000e+00  0.0000000000000000e+00  0.0000000000000000e+00  0.0000000000000000e+00  0.0000000000000000e+00  0.0000000000000000e+00  0.0000000000000000e+00  0.0000000000000000e+00  0.0000000000000000e+00  0.0000000000000000e+00  0.0000000000000000e+00  0.0000000000000000e+00  0.0000000000000000e+00  0.0000000000000000e+00  0.0000000000000000e+00  0.0000000000000000e+00  0.0000000000000000e+00  0.0000000000000000e+00  0.0000000000000000e+00  0.0000000000000000e+00  0.0000000000000000e+00  0.0000000000000000e+00  0.0000000000000000e+00  0.0000000000000000e+00  0.0000000000000000e+00  0.0000000000000000e+00  2.4387857899759683e-04  5.0018352331834891e-04  7.7817810141767626e-04  1.0860107986491009e-03  1.4295489828616600e-03  1.8112324253597575e-03  2.2289359332594507e-03  2.6749907595334387e-03  3.1356208592855086e-03  3.5911001135807614e-03  4.0168966721964164e-03  4.3859120787429961e-03  4.6716535868039947e-03  4.8518633497806919e-03  4.9118840944965565e-03  4.8469891554262182e-03  4.6631050860152269e-03  4.3757580024079250e-03  4.0075340392933907e-03  3.5846884800421956e-03  3.1336568239625096e-03  2.6781096412982334e-03  2.2369353317140050e-03  1.8232462662260761e-03  1.4442761552325618e-03  1.1019116938040779e-03  7.9357487466488491e-04  5.1321108282257580e-04  2.5219713316586420e-04  0.0000000000000000e+00  0.0000000000000000e+00  5.0018352331834891e-04  1.0253834295809088e-03  1.5959547981497055e-03  2.2295148476468708e-03  2.9388812200449462e-03  3.7297535279690462e-03  4.5982890985294383e-03  5.5289342019520784e-03  6.4930793570829740e-03  7.4492274795417840e-03  8.3452975090050965e-03  9.1233538172974839e-03  9.7264553644229486e-03  1.0106596888946566e-02  1.0232135041496620e-02  1.0092948483567564e-02  9.7020255612218272e-03  9.0930967219025327e-03  8.3149845591904119e-03  7.4241244726164111e-03  6.4769567258959760e-03  5.5236072655215091e-03  4.6036689653696670e-03  3.7442405522025730e-03  2.9598842115492346e-03  2.2539090961845596e-03  1.6203554222781280e-03  1.0461664918208448e-03  5.1321108282257580e-04  0.0000000000000000e+00  0.0000000000000000e+00  7.7817810141767615e-04  1.5959547981497057e-03  2.4871911605997446e-03  3.4813473240422506e-03  4.6003671773246387e-03  5.8549633430633593e-03  7.2405486776594289e-03  8.7334113343633599e-03  1.0288103849414169e-02  1.1837273133827958e-02  1.3295108546053827e-02  1.4565055676046495e-02  1.5551398622536711e-02  1.6172979049196699e-02  1.6376194395415308e-02  1.6144082493654687e-02  1.5499084146125566e-02  1.4498787050261398e-02  1.3225918669184074e-02  1.1775274680171728e-02  1.0240659911248095e-02  8.7043172444805344e-03  7.2301611931586190e-03  5.8609458619160431e-03  4.6186507774812246e-03  3.5069840951829829e-03  2.5149103823036180e-03  1.6203554222781276e-03  7.9357487466488470e-04  0.0000000000000000e+00  0.0000000000000000e+00  1.0860107986491007e-03  2.2295148476468708e-03  3.4813473240422502e-03  4.8863274709154960e-03  6.4788924398601405e-03  8.2776281379195928e-03  1.0278985234015346e-02  1.2451033683107800e-02  1.4728751906724947e-02  1.7012861364014972e-02  1.9174277659010665e-02  2.1065509157698788e-02  2.2538650058468977e-02  2.3467307901812576e-02  2.3767740348103139e-02  2.3413747082107479e-02  2.2441142686030886e-02  2.0940619078056569e-02  1.9041246180296553e-02  1.6889276192810204e-02  1.4627452241179922e-02  1.2378819218078926e-02  1.0236950679362013e-02  8.2625035900358301e-03  6.4846971196089922e-03  4.9058168146660008e-03  3.5069840951829825e-03  2.2539090961845591e-03  1.1019116938040779e-03  0.0000000000000000e+00  0.0000000000000000e+00  1.4295489828616598e-03  2.9388812200449462e-03  4.6003671773246378e-03  6.4788924398601387e-03  8.6260610815446226e-03  1.1072527528481329e-02  1.3818718351637449e-02  1.6825059503910337e-02  2.0003879329993830e-02  2.3216127376374119e-02  2.6276400538107723e-02  2.8968848297423341e-02  3.1073946256919501e-02  3.2402276824849786e-02  3.2827777317740114e-02  3.2311406813092886e-02  3.0908182728380074e-02  2.8755593396873995e-02  2.6047264072637112e-02  2.2999753476688527e-02  1.9821002682923434e-02  1.6686643892703783e-02  1.3726745759735790e-02  1.1022321786584022e-02  8.6089973100883493e-03  6.4846971196089922e-03  4.6186507774812246e-03  2.9598842115492346e-03  1.4442761552325614e-03  0.0000000000000000e+00  0.0000000000000000e+00  1.8112324253597573e-03  3.7297535279690462e-03  5.8549633430633567e-03  8.2776281379195928e-03  1.1072527528481325e-02  1.4288104220811235e-02  1.7933234609222838e-02  2.1962458341498608e-02  2.6262656043045736e-02  3.0645883588032660e-02  3.4854031776932880e-02  3.8580014579635620e-02  4.1506400544667511e-02  4.3356163412390916e-02  4.3943842922024141e-02  4.3212422399148534e-02  4.1244234343740638e-02  3.8242592148497949e-02  3.4490678767791182e-02  3.0300716735225077e-02  2.5967078482684661e-02  2.1732704678901277e-02  1.7772037510525852e-02  1.4188557552753805e-02  1.1022321786584025e-02  8.2625035900358353e-03  5.8609458619160440e-03  3.7442405522025743e-03  1.8232462662260763e-03  0.0000000000000000e+00  0.0000000000000000e+00  2.2289359332594494e-03  4.5982890985294348e-03  7.2405486776594228e-03  1.0278985234015339e-02  1.3818718351637439e-02  1.7933234609222828e-02  2.2646145931959676e-02  2.7909627072512523e-02  3.3583432633801626e-02  3.9421266701948419e-02  4.5073354594168231e-02  5.0113372874588037e-02  5.4092600934665065e-02  5.6614372790204516e-02  5.7411152934322182e-02  5.6400925071111142e-02  5.3703896992725694e-02  4.9614103824693521e-02  4.4536612653167044e-02  3.8911375538241144e-02  3.3145141182147904e-02  2.7565187840924231e-02  2.2398480564716123e-02  1.7772037510525845e-02  1.3726745759735788e-02  1.0236950679362011e-02  7.2301611931586129e-03  4.6036689653696653e-03  2.2369353317140046e-03  0.0000000000000000e+00  0.0000000000000000e+00  2.6749907595334361e-03  5.5289342019520732e-03  8.7334113343633529e-03  1.2451033683107786e-02  1.6825059503910316e-02  2.1962458341498584e-02  2.7909627072512513e-02  3.4622061496284023e-02  4.1932773077746142e-02  4.9528763939082510e-02  5.6948790841120818e-02  6.3615817763421512e-02  6.8910575311692340e-02  7.2277877463465895e-02  7.3339888965601910e-02  7.1980419073957858e-02  6.8370163574649340e-02  6.2924123792175699e-02  5.6208142124431593e-02  4.8827601428219583e-02  4.1330977643713185e-02  3.4147902588395750e-02  2.7565187840924217e-02  2.1732704678901260e-02  1.6686643892703773e-02  1.2378819218078920e-02  8.7043172444805240e-03  5.5236072655215039e-03  2.6781096412982325e-03  0.0000000000000000e+00  0.0000000000000000e+00  3.1356208592855060e-03  6.4930793570829679e-03  1.0288103849414157e-02  1.4728751906724924e-02  2.0003879329993802e-02  2.6262656043045712e-02  3.3583432633801612e-02  4.1932773077746129e-02  5.1120141189263772e-02  6.0760431169535514e-02  7.0263199793671183e-02  7.8869394563443565e-02  8.5747771283449140e-02  9.0141895315802495e-02  9.1531534746421103e-02  8.9755081887309962e-02  8.5046983078264707e-02  7.7976274086711164e-02  6.9311876365164990e-02  5.9864685098924890e-02  5.0354778084043580e-02  4.1330977643713199e-02  3.3145141182147890e-02  2.5967078482684643e-02  1.9821002682923420e-02  1.4627452241179921e-02  1.0240659911248088e-02  6.4769567258959743e-03  3.1336568239625092e-03  0.0000000000000000e+00  0.0000000000000000e+00  3.5911001135807597e-03  7.4492274795417771e-03  1.1837273133827944e-02  1.7012861364014954e-02  2.3216127376374098e-02  3.0645883588032632e-02  3.9421266701948406e-02  4.9528763939082489e-02  6.0760431169535514e-02  7.2658442777386034e-02  8.4491479459272559e-02  9.5293314383251268e-02  1.0398417864960799e-01  1.0956633506782107e-01  1.1134545444900099e-01  1.0910203335527174e-01  1.0314543389498096e-01  9.4229198830918542e-02  8.3364464596731955e-02  7.1603872893241619e-02  5.9864685098924897e-02  4.8827601428219604e-02  3.8911375538241116e-02  3.0300716735225046e-02  2.2999753476688527e-02  1.6889276192810204e-02  1.1775274680171730e-02  7.4241244726164120e-03  3.5846884800421960e-03  0.0000000000000000e+00  0.0000000000000000e+00  4.0168966721964156e-03  8.3452975090050931e-03  1.3295108546053813e-02  1.9174277659010648e-02  2.6276400538107703e-02  3.4854031776932859e-02  4.5073354594168204e-02  5.6948790841120797e-02  7.0263199793671169e-02  8.4491479459272503e-02  9.8760181325204172e-02  1.1188466370502993e-01  1.2251517012550917e-01  1.2938558917661225e-01  1.3160356298685855e-01  1.2888000443314809e-01  1.2160432888299805e-01  1.1073403262324423e-01  9.7548235943399425e-02  8.3364464596731969e-02  6.9311876365165018e-02  5.6208142124431620e-02  4.4536612653167017e-02  3.4490678767791154e-02  2.6047264072637133e-02  1.9041246180296560e-02  1.3225918669184085e-02  8.3149845591904206e-03  4.0075340392933933e-03  0.0000000000000000e+00  0.0000000000000000e+00  4.3859120787429944e-03  9.1233538172974804e-03  1.4565055676046488e-02  2.1065509157698767e-02  2.8968848297423303e-02  3.8580014579635571e-02  5.0113372874588002e-02  6.3615817763421470e-02  7.8869394563443565e-02  9.5293314383251199e-02  1.1188466370502988e-01  1.2725080379689080e-01  1.3977697353755270e-01  1.4792701716432013e-01  1.5060401249982636e-01  1.4744178032576635e-01  1.3890482411148344e-01  1.2615312386030619e-01  1.1073403262324423e-01  9.4229198830918598e-02  7.7976274086711234e-02  6.2924123792175768e-02  4.9614103824693549e-02  3.8242592148497956e-02  2.8755593396874026e-02  2.0940619078056593e-02  1.4498787050261416e-02  9.0930967219025449e-03  4.3757580024079258e-03  0.0000000000000000e+00  0.0000000000000000e+00  4.6716535868039921e-03  9.7264553644229451e-03  1.5551398622536702e-02  2.2538650058468952e-02  3.1073946256919466e-02  4.1506400544667435e-02  5.4092600934664989e-02  6.8910575311692257e-02  8.5747771283449056e-02  1.0398417864960789e-01  1.2251517012550908e-01  1.3977697353755270e-01  1.5392972741239699e-01  1.6320137307456020e-01  1.6631029495857441e-01  1.6281405173461516e-01  1.5323480311280607e-01  1.3890482411148333e-01  1.2160432888299798e-01  1.0314543389498095e-01  8.5046983078264735e-02  6.8370163574649437e-02  5.3703896992725729e-02  4.1244234343740631e-02  3.0908182728380081e-02  2.2441142686030893e-02  1.5499084146125566e-02  9.7020255612218307e-03  4.6631050860152269e-03  0.0000000000000000e+00  0.0000000000000000e+00  4.8518633497806893e-03  1.0106596888946566e-02  1.6172979049196696e-02  2.3467307901812555e-02  3.2402276824849759e-02  4.3356163412390854e-02  5.6614372790204440e-02  7.2277877463465798e-02  9.0141895315802384e-02  1.0956633506782094e-01  1.2938558917661208e-01  1.4792701716431997e-01  1.6320137307456012e-01  1.7327360373121234e-01  1.7672770456883199e-01  1.7305748776798446e-01  1.6281405173461511e-01  1.4744178032576621e-01  1.2888000443314807e-01  1.0910203335527173e-01  8.9755081887309976e-02  7.1980419073957913e-02  5.6400925071111128e-02  4.3212422399148499e-02  3.2311406813092879e-02  2.3413747082107476e-02  1.6144082493654691e-02  1.0092948483567562e-02  4.8469891554262165e-03  0.0000000000000000e+00  0.0000000000000000e+00  4.9118840944965521e-03  1.0232135041496610e-02  1.6376194395415287e-02  2.3767740348103108e-02  3.2827777317740080e-02  4.3943842922024065e-02  5.7411152934322113e-02  7.3339888965601813e-02  9.1531534746421020e-02  1.1134545444900081e-01  1.3160356298685835e-01  1.5060401249982613e-01  1.6631029495857419e-01  1.7672770456883191e-01  1.8038192539950018e-01  1.7672770456883191e-01  1.6631029495857422e-01  1.5060401249982613e-01  1.3160356298685844e-01  1.1134545444900089e-01  9.1531534746421131e-02  7.3339888965601938e-02  5.7411152934322175e-02  4.3943842922024093e-02  3.2827777317740094e-02  2.3767740348103132e-02  1.6376194395415298e-02  1.0232135041496610e-02  4.9118840944965513e-03  0.0000000000000000e+00  0.0000000000000000e+00  4.8469891554262122e-03  1.0092948483567558e-02  1.6144082493654673e-02  2.3413747082107444e-02  3.2311406813092844e-02  4.3212422399148458e-02  5.6400925071111087e-02  7.1980419073957788e-02  8.9755081887309851e-02  1.0910203335527163e-01  1.2888000443314798e-01  1.4744178032576616e-01  1.6281405173461500e-01  1.7305748776798438e-01  1.7672770456883191e-01  1.7327360373121223e-01  1.6320137307456006e-01  1.4792701716431986e-01  1.2938558917661205e-01  1.0956633506782097e-01  9.0141895315802467e-02  7.2277877463465909e-02  5.6614372790204481e-02  4.3356163412390868e-02  3.2402276824849752e-02  2.3467307901812555e-02  1.6172979049196689e-02  1.0106596888946558e-02  4.8518633497806867e-03  0.0000000000000000e+00  0.0000000000000000e+00  4.6631050860152182e-03  9.7020255612218151e-03  1.5499084146125544e-02  2.2441142686030847e-02  3.0908182728380043e-02  4.1244234343740582e-02  5.3703896992725632e-02  6.8370163574649270e-02  8.5046983078264582e-02  1.0314543389498081e-01  1.2160432888299787e-01  1.3890482411148325e-01  1.5323480311280591e-01  1.6281405173461497e-01  1.6631029495857419e-01  1.6320137307456001e-01  1.5392972741239683e-01  1.3977697353755245e-01  1.2251517012550900e-01  1.0398417864960785e-01  8.5747771283449112e-02  6.8910575311692340e-02  5.4092600934664975e-02  4.1506400544667449e-02  3.1073946256919466e-02  2.2538650058468952e-02  1.5551398622536699e-02  9.7264553644229416e-03  4.6716535868039895e-03  0.0000000000000000e+00  0.0000000000000000e+00  4.3757580024079172e-03  9.0930967219025223e-03  1.4498787050261377e-02  2.0940619078056541e-02  2.8755593396873974e-02  3.8242592148497880e-02  4.9614103824693417e-02  6.2924123792175587e-02  7.7976274086711025e-02  9.4229198830918348e-02  1.1073403262324399e-01  1.2615312386030597e-01  1.3890482411148317e-01  1.4744178032576605e-01  1.5060401249982602e-01  1.4792701716431983e-01  1.3977697353755245e-01  1.2725080379689060e-01  1.1188466370502977e-01  9.5293314383251143e-02  7.8869394563443510e-02  6.3615817763421470e-02  5.0113372874587975e-02  3.8580014579635551e-02  2.8968848297423296e-02  2.1065509157698756e-02  1.4565055676046476e-02  9.1233538172974717e-03  4.3859120787429901e-03  0.0000000000000000e+00  0.0000000000000000e+00  4.0075340392933846e-03  8.3149845591904015e-03  1.3225918669184057e-02  1.9041246180296529e-02  2.6047264072637074e-02  3.4490678767791098e-02  4.4536612653166899e-02  5.6208142124431454e-02  6.9311876365164837e-02  8.3364464596731774e-02  9.7548235943399245e-02  1.1073403262324405e-01  1.2160432888299785e-01  1.2888000443314787e-01  1.3160356298685827e-01  1.2938558917661203e-01  1.2251517012550889e-01  1.1188466370502971e-01  9.8760181325204033e-02  8.4491479459272434e-02  7.0263199793671113e-02  5.6948790841120790e-02  4.5073354594168169e-02  3.4854031776932831e-02  2.6276400538107685e-02  1.9174277659010641e-02  1.3295108546053808e-02  8.3452975090050844e-03  4.0168966721964121e-03  0.0000000000000000e+00  0.0000000000000000e+00  3.5846884800421887e-03  7.4241244726163972e-03  1.1775274680171709e-02  1.6889276192810172e-02  2.2999753476688482e-02  3.0300716735225011e-02  3.8911375538241047e-02  4.8827601428219472e-02  5.9864685098924751e-02  7.1603872893241438e-02  8.3364464596731802e-02  9.4229198830918404e-02  1.0314543389498081e-01  1.0910203335527158e-01  1.1134545444900074e-01  1.0956633506782086e-01  1.0398417864960778e-01  9.5293314383251018e-02  8.4491479459272406e-02  7.2658442777385951e-02  6.0760431169535452e-02  4.9528763939082468e-02  3.9421266701948371e-02  3.0645883588032601e-02  2.3216127376374084e-02  1.7012861364014947e-02  1.1837273133827942e-02  7.4492274795417727e-03  3.5911001135807579e-03  0.0000000000000000e+00  0.0000000000000000e+00  3.1336568239625040e-03  6.4769567258959613e-03  1.0240659911248071e-02  1.4627452241179895e-02  1.9821002682923396e-02  2.5967078482684619e-02  3.3145141182147835e-02  4.1330977643713095e-02  5.0354778084043463e-02  5.9864685098924751e-02  6.9311876365164879e-02  7.7976274086711081e-02  8.5046983078264568e-02  8.9755081887309809e-02  9.1531534746421006e-02  9.0141895315802356e-02  8.5747771283448987e-02  7.8869394563443412e-02  7.0263199793671072e-02  6.0760431169535431e-02  5.1120141189263731e-02  4.1932773077746108e-02  3.3583432633801584e-02  2.6262656043045680e-02  2.0003879329993795e-02  1.4728751906724921e-02  1.0288103849414155e-02  6.4930793570829662e-03  3.1356208592855043e-03  0.0000000000000000e+00  0.0000000000000000e+00  2.6781096412982278e-03  5.5236072655214952e-03  8.7043172444805101e-03  1.2378819218078900e-02  1.6686643892703752e-02  2.1732704678901239e-02  2.7565187840924175e-02  3.4147902588395673e-02  4.1330977643713122e-02  4.8827601428219500e-02  5.6208142124431489e-02  6.2924123792175629e-02  6.8370163574649284e-02  7.1980419073957760e-02  7.3339888965601799e-02  7.2277877463465784e-02  6.8910575311692229e-02  6.3615817763421373e-02  5.6948790841120735e-02  4.9528763939082461e-02  4.1932773077746108e-02  3.4622061496284003e-02  2.7909627072512502e-02  2.1962458341498563e-02  1.6825059503910306e-02  1.2451033683107781e-02  8.7334113343633495e-03  5.5289342019520698e-03  2.6749907595334339e-03  0.0000000000000000e+00  0.0000000000000000e+00  2.2369353317139998e-03  4.6036689653696557e-03  7.2301611931585999e-03  1.0236950679361994e-02  1.3726745759735762e-02  1.7772037510525820e-02  2.2398480564716074e-02  2.7565187840924158e-02  3.3145141182147828e-02  3.8911375538241047e-02  4.4536612653166906e-02  4.9614103824693438e-02  5.3703896992725604e-02  5.6400925071111031e-02  5.7411152934322050e-02  5.6614372790204384e-02  5.4092600934664926e-02  5.0113372874587912e-02  4.5073354594168100e-02  3.9421266701948350e-02  3.3583432633801570e-02  2.7909627072512488e-02  2.2646145931959641e-02  1.7933234609222796e-02  1.3818718351637418e-02  1.0278985234015327e-02  7.2405486776594124e-03  4.5982890985294270e-03  2.2289359332594459e-03  0.0000000000000000e+00  0.0000000000000000e+00  1.8232462662260715e-03  3.7442405522025634e-03  5.8609458619160275e-03  8.2625035900358128e-03  1.1022321786583996e-02  1.4188557552753767e-02  1.7772037510525807e-02  2.1732704678901212e-02  2.5967078482684591e-02  3.0300716735224990e-02  3.4490678767791078e-02  3.8242592148497852e-02  4.1244234343740527e-02  4.3212422399148395e-02  4.3943842922023996e-02  4.3356163412390784e-02  4.1506400544667379e-02  3.8580014579635495e-02  3.4854031776932790e-02  3.0645883588032576e-02  2.6262656043045667e-02  2.1962458341498556e-02  1.7933234609222793e-02  1.4288104220811197e-02  1.1072527528481303e-02  8.2776281379195720e-03  5.8549633430633428e-03  3.7297535279690371e-03  1.8112324253597529e-03  0.0000000000000000e+00  0.0000000000000000e+00  1.4442761552325590e-03  2.9598842115492277e-03  4.6186507774812133e-03  6.4846971196089766e-03  8.6089973100883302e-03  1.1022321786583997e-02  1.3726745759735757e-02  1.6686643892703735e-02  1.9821002682923368e-02  2.2999753476688457e-02  2.6047264072637074e-02  2.8755593396873943e-02  3.0908182728379995e-02  3.2311406813092795e-02  3.2827777317740024e-02  3.2402276824849689e-02  3.1073946256919397e-02  2.8968848297423251e-02  2.6276400538107644e-02  2.3216127376374057e-02  2.0003879329993774e-02  1.6825059503910302e-02  1.3818718351637414e-02  1.1072527528481294e-02  8.6260610815446000e-03  6.4788924398601249e-03  4.6003671773246282e-03  2.9388812200449393e-03  1.4295489828616572e-03  0.0000000000000000e+00  0.0000000000000000e+00  1.1019116938040753e-03  2.2539090961845539e-03  3.5069840951829747e-03  4.9058168146659887e-03  6.4846971196089766e-03  8.2625035900358128e-03  1.0236950679361987e-02  1.2378819218078889e-02  1.4627452241179884e-02  1.6889276192810158e-02  1.9041246180296515e-02  2.0940619078056524e-02  2.2441142686030816e-02  2.3413747082107410e-02  2.3767740348103070e-02  2.3467307901812503e-02  2.2538650058468900e-02  2.1065509157698718e-02  1.9174277659010603e-02  1.7012861364014920e-02  1.4728751906724903e-02  1.2451033683107774e-02  1.027898523401532