<?xml version="1.0"?>
<VTKFile type="UnstructuredGrid"  version="0.1"  >
<UnstructuredGrid>
<Piece  NumberOfPoints="961" NumberOfCells="1800">
<Points>
<DataArray  type="Float64"  NumberOfComponents="3"  format="ascii">-2 -2 0  -1.866666666666667 -2 0  -1.733333333333333 -2 0  -1.6 -2 0  -1.466666666666667 -2 0  -1.333333333333333 -2 0  -1.2 -2 0  -1.066666666666667 -2 0  -0.9333333333333333 -2 0  -0.8 -2 0  -0.6666666666666667 -2 0  -0.5333333333333334 -2 0  -0.3999999999999999 -2 0  -0.2666666666666666 -2 0  -0.1333333333333333 -2 0  0 -2 0  0.1333333333333333 -2 0  0.2666666666666666 -2 0  0.3999999999999999 -2 0  0.5333333333333332 -2 0  0.6666666666666665 -2 0  0.7999999999999998 -2 0  0.9333333333333331 -2 0  1.066666666666667 -2 0  1.2 -2 0  1.333333333333333 -2 0  1.466666666666667 -2 0  1.6 -2 0  1.733333333333333 -2 0  1.866666666666667 -2 0  2 -2 0  -2 -1.866666666666667 0  -1.866666666666667 -1.866666666666667 0  -1.733333333333333 -1.866666666666667 0  -1.6 -1.866666666666667 0  -1.466666666666667 -1.866666666666667 0  -1.333333333333333 -1.866666666666667 0  -1.2 -1.866666666666667 0  -1.066666666666667 -1.866666666666667 0  -0.9333333333333333 -1.866666666666667 0  -0.8 -1.866666666666667 0  -0.6666666666666667 -1.866666666666667 0  -0.5333333333333334 -1.866666666666667 0  -0.3999999999999999 -1.866666666666667 0  -0.2666666666666666 -1.866666666666667 0  -0.1333333333333333 -1.866666666666667 0  0 -1.866666666666667 0  0.1333333333333333 -1.866666666666667 0  0.2666666666666666 -1.866666666666667 0  0.3999999999999999 -1.866666666666667 0  0.5333333333333332 -1.866666666666667 0  0.6666666666666665 -1.866666666666667 0  0.7999999999999998 -1.866666666666667 0  0.9333333333333331 -1.866666666666667 0  1.066666666666667 -1.866666666666667 0  1.2 -1.866666666666667 0  1.333333333333333 -1.866666666666667 0  1.466666666666667 -1.866666666666667 0  1.6 -1.866666666666667 0  1.733333333333333 -1.866666666666667 0  1.866666666666667 -1.866666666666667 0  2 -1.866666666666667 0  -2 -1.733333333333333 0  -1.866666666666667 -1.733333333333333 0  -1.733333333333333 -1.733333333333333 0  -1.6 -1.733333333333333 0  -1.466666666666667 -1.733333333333333 0  -1.333333333333333 -1.733333333333333 0  -1.2 -1.733333333333333 0  -1.066666666666667 -1.733333333333333 0  -0.9333333333333333 -1.733333333333333 0  -0.8 -1.733333333333333 0  -0.6666666666666667 -1.733333333333333 0  -0.5333333333333334 -1.733333333333333 0  -0.3999999999999999 -1.733333333333333 0  -0.2666666666666666 -1.733333333333333 0  -0.1333333333333333 -1.733333333333333 0  0 -1.733333333333333 0  0.1333333333333333 -1.733333333333333 0  0.2666666666666666 -1.733333333333333 0  0.3999999999999999 -1.733333333333333 0  0.5333333333333332 -1.733333333333333 0  0.6666666666666665 -1.733333333333333 0  0.7999999999999998 -1.733333333333333 0  0.9333333333333331 -1.733333333333333 0  1.066666666666667 -1.733333333333333 0  1.2 -1.733333333333333 0  1.333333333333333 -1.733333333333333 0  1.466666666666667 -1.733333333333333 0  1.6 -1.733333333333333 0  1.733333333333333 -1.733333333333333 0  1.866666666666667 -1.733333333333333 0  2 -1.733333333333333 0  -2 -1.6 0  -1.866666666666667 -1.6 0  -1.733333333333333 -1.6 0  -1.6 -1.6 0  -1.466666666666667 -1.6 0  -1.333333333333333 -1.6 0  -1.2 -1.6 0  -1.066666666666667 -1.6 0  -0.9333333333333333 -1.6 0  -0.8 -1.6 0  -0.6666666666666667 -1.6 0  -0.5333333333333334 -1.6 0  -0.3999999999999999 -1.6 0  -0.2666666666666666 -1.6 0  -0.1333333333333333 -1.6 0  0 -1.6 0  0.1333333333333333 -1.6 0  0.2666666666666666 -1.6 0  0.3999999999999999 -1.6 0  0.5333333333333332 -1.6 0  0.6666666666666665 -1.6 0  0.7999999999999998 -1.6 0  0.9333333333333331 -1.6 0  1.066666666666667 -1.6 0  1.2 -1.6 0  1.333333333333333 -1.6 0  1.466666666666667 -1.6 0  1.6 -1.6 0  1.733333333333333 -1.6 0  1.866666666666667 -1.6 0  2 -1.6 0  -2 -1.466666666666667 0  -1.866666666666667 -1.466666666666667 0  -1.733333333333333 -1.466666666666667 0  -1.6 -1.466666666666667 0  -1.466666666666667 -1.466666666666667 0  -1.333333333333333 -1.466666666666667 0  -1.2 -1.466666666666667 0  -1.066666666666667 -1.466666666666667 0  -0.9333333333333333 -1.466666666666667 0  -0.8 -1.466666666666667 0  -0.6666666666666667 -1.466666666666667 0  -0.5333333333333334 -1.466666666666667 0  -0.3999999999999999 -1.466666666666667 0  -0.2666666666666666 -1.466666666666667 0  -0.1333333333333333 -1.466666666666667 0  0 -1.466666666666667 0  0.1333333333333333 -1.466666666666667 0  0.2666666666666666 -1.466666666666667 0  0.3999999999999999 -1.466666666666667 0  0.5333333333333332 -1.466666666666667 0  0.6666666666666665 -1.466666666666667 0  0.7999999999999998 -1.466666666666667 0  0.9333333333333331 -1.466666666666667 0  1.066666666666667 -1.466666666666667 0  1.2 -1.466666666666667 0  1.333333333333333 -1.466666666666667 0  1.466666666666667 -1.466666666666667 0  1.6 -1.466666666666667 0  1.733333333333333 -1.466666666666667 0  1.866666666666667 -1.466666666666667 0  2 -1.466666666666667 0  -2 -1.333333333333333 0  -1.866666666666667 -1.333333333333333 0  -1.733333333333333 -1.333333333333333 0  -1.6 -1.333333333333333 0  -1.466666666666667 -1.333333333333333 0  -1.333333333333333 -1.333333333333333 0  -1.2 -1.333333333333333 0  -1.066666666666667 -1.333333333333333 0  -0.9333333333333333 -1.333333333333333 0  -0.8 -1.333333333333333 0  -0.6666666666666667 -1.333333333333333 0  -0.5333333333333334 -1.333333333333333 0  -0.3999999999999999 -1.333333333333333 0  -0.2666666666666666 -1.333333333333333 0  -0.1333333333333333 -1.333333333333333 0  0 -1.333333333333333 0  0.1333333333333333 -1.333333333333333 0  0.2666666666666666 -1.333333333333333 0  0.3999999999999999 -1.333333333333333 0  0.5333333333333332 -1.333333333333333 0  0.6666666666666665 -1.333333333333333 0  0.7999999999999998 -1.333333333333333 0  0.9333333333333331 -1.333333333333333 0  1.066666666666667 -1.333333333333333 0  1.2 -1.333333333333333 0  1.333333333333333 -1.333333333333333 0  1.466666666666667 -1.333333333333333 0  1.6 -1.333333333333333 0  1.733333333333333 -1.333333333333333 0  1.866666666666667 -1.333333333333333 0  2 -1.333333333333333 0  -2 -1.2 0  -1.866666666666667 -1.2 0  -1.733333333333333 -1.2 0  -1.6 -1.2 0  -1.466666666666667 -1.2 0  -1.333333333333333 -1.2 0  -1.2 -1.2 0  -1.066666666666667 -1.2 0  -0.9333333333333333 -1.2 0  -0.8 -1.2 0  -0.6666666666666667 -1.2 0  -0.5333333333333334 -1.2 0  -0.3999999999999999 -1.2 0  -0.2666666666666666 -1.2 0  -0.1333333333333333 -1.2 0  0 -1.2 0  0.1333333333333333 -1.2 0  0.2666666666666666 -1.2 0  0.3999999999999999 -1.2 0  0.5333333333333332 -1.2 0  0.6666666666666665 -1.2 0  0.7999999999999998 -1.2 0  0.9333333333333331 -1.2 0  1.066666666666667 -1.2 0  1.2 -1.2 0  1.333333333333333 -1.2 0  1.466666666666667 -1.2 0  1.6 -1.2 0  1.733333333333333 -1.2 0  1.866666666666667 -1.2 0  2 -1.2 0  -2 -1.066666666666667 0  -1.866666666666667 -1.066666666666667 0  -1.733333333333333 -1.066666666666667 0  -1.6 -1.066666666666667 0  -1.466666666666667 -1.066666666666667 0  -1.333333333333333 -1.066666666666667 0  -1.2 -1.066666666666667 0  -1.066666666666667 -1.066666666666667 0  -0.9333333333333333 -1.066666666666667 0  -0.8 -1.066666666666667 0  -0.6666666666666667 -1.066666666666667 0  -0.5333333333333334 -1.066666666666667 0  -0.3999999999999999 -1.066666666666667 0  -0.2666666666666666 -1.066666666666667 0  -0.1333333333333333 -1.066666666666667 0  0 -1.066666666666667 0  0.1333333333333333 -1.066666666666667 0  0.2666666666666666 -1.066666666666667 0  0.3999999999999999 -1.066666666666667 0  0.5333333333333332 -1.066666666666667 0  0.6666666666666665 -1.066666666666667 0  0.7999999999999998 -1.066666666666667 0  0.9333333333333331 -1.066666666666667 0  1.066666666666667 -1.066666666666667 0  1.2 -1.066666666666667 0  1.333333333333333 -1.066666666666667 0  1.466666666666667 -1.066666666666667 0  1.6 -1.066666666666667 0  1.733333333333333 -1.066666666666667 0  1.866666666666667 -1.066666666666667 0  2 -1.066666666666667 0  -2 -0.9333333333333333 0  -1.866666666666667 -0.9333333333333333 0  -1.733333333333333 -0.9333333333333333 0  -1.6 -0.9333333333333333 0  -1.466666666666667 -0.9333333333333333 0  -1.333333333333333 -0.9333333333333333 0  -1.2 -0.9333333333333333 0  -1.066666666666667 -0.9333333333333333 0  -0.9333333333333333 -0.9333333333333333 0  -0.8 -0.9333333333333333 0  -0.6666666666666667 -0.9333333333333333 0  -0.5333333333333334 -0.9333333333333333 0  -0.3999999999999999 -0.9333333333333333 0  -0.2666666666666666 -0.9333333333333333 0  -0.1333333333333333 -0.9333333333333333 0  0 -0.9333333333333333 0  0.1333333333333333 -0.9333333333333333 0  0.2666666666666666 -0.9333333333333333 0  0.3999999999999999 -0.9333333333333333 0  0.5333333333333332 -0.9333333333333333 0  0.6666666666666665 -0.9333333333333333 0  0.7999999999999998 -0.9333333333333333 0  0.9333333333333331 -0.9333333333333333 0  1.066666666666667 -0.9333333333333333 0  1.2 -0.9333333333333333 0  1.333333333333333 -0.9333333333333333 0  1.466666666666667 -0.9333333333333333 0  1.6 -0.9333333333333333 0  1.733333333333333 -0.9333333333333333 0  1.866666666666667 -0.9333333333333333 0  2 -0.9333333333333333 0  -2 -0.8 0  -1.866666666666667 -0.8 0  -1.733333333333333 -0.8 0  -1.6 -0.8 0  -1.466666666666667 -0.8 0  -1.333333333333333 -0.8 0  -1.2 -0.8 0  -1.066666666666667 -0.8 0  -0.9333333333333333 -0.8 0  -0.8 -0.8 0  -0.6666666666666667 -0.8 0  -0.5333333333333334 -0.8 0  -0.3999999999999999 -0.8 0  -0.2666666666666666 -0.8 0  -0.1333333333333333 -0.8 0  0 -0.8 0  0.1333333333333333 -0.8 0  0.2666666666666666 -0.8 0  0.3999999999999999 -0.8 0  0.5333333333333332 -0.8 0  0.6666666666666665 -0.8 0  0.7999999999999998 -0.8 0  0.9333333333333331 -0.8 0  1.066666666666667 -0.8 0  1.2 -0.8 0  1.333333333333333 -0.8 0  1.466666666666667 -0.8 0  1.6 -0.8 0  1.733333333333333 -0.8 0  1.866666666666667 -0.8 0  2 -0.8 0  -2 -0.6666666666666667 0  -1.866666666666667 -0.
[...]
<PointData  Scalars="f_578"> 
<DataArray  type="Float64"  Name="f_578"  format="ascii">0.0000000000000000e+00  0.0000000000000000e+00  0.0000000000000000e+00  0.0000000000000000e+00  0.0000000000000000e+00  0.0000000000000000e+00  0.0000000000000000e+00  0.0000000000000000e+00  0.0000000000000000e+00  0.0000000000000000e+00  0.0000000000000000e+00  0.0000000000000000e+00  0.0000000000000000e+00  0.0000000000000000e+00  0.0000000000000000e+00  0.0000000000000000e+00  0.0000000000000000e+00  0.0000000000000000e+00  0.0000000000000000e+00  0.0000000000000000e+00  0.0000000000000000e+00  0.0000000000000000e+00  0.0000000000000000e+00  0.0000000000000000e+00  0.0000000000000000e+00  0.0000000000000000e+00  0.0000000000000000e+00  0.0000000000000000e+00  0.0000000000000000e+00  0.0000000000000000e+00  0.0000000000000000e+00  0.0000000000000000e+00  5.1001636704696624e-04  1.0217547790480168e-03  1.5359183155488757e-03  2.0519956386903840e-03  2.5677531727748854e-03  3.0788927700183414e-03  3.5789070822440415e-03  4.0591634438717373e-03  4.5092330658043590e-03  4.9174594670383445e-03  5.2717311105817287e-03  5.5603923935910711e-03  5.7732002821440495e-03  5.9022173550316503e-03  5.9425310934388045e-03  5.8927063288094677e-03  5.7549112377174548e-03  5.5347015435254308e-03  5.2404943241375467e-03  4.8828031755492633e-03  4.4733333813417042e-03  4.0240455918624162e-03  3.5462896982041817e-03  3.0500907715300140e-03  2.5436416549875678e-03  2.0330277669383771e-03  1.5221834575422867e-03  1.0130584004783721e-03  5.0595700966237834e-04  0.0000000000000000e+00  0.0000000000000000e+00  1.0217547790480161e-03  2.0468479219366599e-03  3.0769323647712350e-03  4.1111399580020568e-03  5.1451035567622073e-03  6.1702755213091142e-03  7.1736333157102327e-03  8.1378423072515759e-03  9.0419133661312004e-03  9.8623455968201816e-03  1.0574685414012078e-02  1.1155370034387720e-02  1.1583667971012530e-02  1.1843494419154187e-02  1.1924876535571139e-02  1.1824877751576623e-02  1.1547858347754821e-02  1.1105040103979905e-02  1.0513438727479507e-02  9.7943105814337680e-03  8.9713153297047224e-03  8.0686160458879816e-03  7.1091239559363294e-03  6.1130540018173524e-03  5.0969013460626395e-03  4.0728896686789478e-03  3.0488891435671468e-03  2.0287609961753953e-03  1.0130584004783721e-03  0.0000000000000000e+00  0.0000000000000000e+00  1.5359183155488751e-03  3.0769323647712337e-03  4.6259131668053687e-03  6.1818673743338354e-03  7.7384561564159586e-03  9.2829545626873892e-03  1.0795791350640484e-02  1.2250780582734161e-02  1.3616107343812559e-02  1.4856057893332313e-02  1.5933393555198242e-02  1.6812169379083228e-02  1.7460711151813243e-02  1.7854408435738212e-02  1.7977974727921255e-02  1.7826877333622503e-02  1.7407744742565349e-02  1.6737700333750959e-02  1.5842720929738166e-02  1.4755247905173938e-02  1.3511363994291207e-02  1.2147879005327798e-02  1.0699643958450699e-02  9.1973482141108204e-03  7.6659663466628319e-03  6.1239296196367674e-03  4.5830157730521268e-03  3.0488891435671460e-03  1.5221834575422867e-03  0.0000000000000000e+00  0.0000000000000000e+00  2.0519956386903832e-03  4.1111399580020551e-03  6.1818673743338328e-03  8.2633593267688356e-03  1.0347521840059803e-02  1.2417554306359621e-02  1.4447298265273746e-02  1.6401521690016060e-02  1.8237230782978026e-02  1.9906004313579802e-02  2.1357220477298544e-02  2.2541909037638887e-02  2.3416837373539705e-02  2.3948357608775540e-02  2.4115529197362266e-02  2.3912100597764524e-02  2.3347079545065683e-02  2.2443818859816247e-02  2.1237754897394920e-02  1.9773116800916438e-02  1.8099043452441229e-02  1.6265585100942635e-02  1.4320030960404854e-02  1.2303911034157046e-02  1.0250896595221383e-02  8.1856958131583460e-03  6.1239296196367657e-03  4.0728896686789478e-03  2.0330277669383771e-03  0.0000000000000000e+00  0.0000000000000000e+00  2.5677531727748837e-03  5.1451035567622039e-03  7.7384561564159543e-03  1.0347521840059796e-02  1.2962717167883303e-02  1.5563307003224464e-02  1.8116531085431629e-02  2.0577919287218683e-02  2.2892923548978868e-02  2.4999872321282555e-02  2.6834091822440266e-02  2.8332857733898723e-02  2.9440674362847429e-02  3.0114265828048655e-02  3.0326641448050383e-02  3.0069684768721967e-02  2.9354906468835110e-02  2.8212262485382576e-02  2.6687217581101007e-02  2.4836474323502368e-02  2.2722943040078759e-02  2.0410578144459159e-02  1.7959655081714310e-02  1.5422935825717722e-02  1.2843005747663347e-02  1.0250896595221383e-02  7.6659663466628353e-03  5.0969013460626421e-03  2.5436416549875678e-03  0.0000000000000000e+00  0.0000000000000000e+00  3.0788927700183401e-03  6.1702755213091133e-03  9.2829545626873875e-03  1.2417554306359614e-02  1.5563307003224457e-02  1.8695734125464429e-02  2.1775517067439423e-02  2.4748816972471378e-02  2.7549214982566895e-02  3.0101296805499941e-02  3.2325705170379790e-02  3.4145254868625324e-02  3.5491489687206293e-02  3.6310910734765486e-02  3.6570069560071909e-02  3.6258824516078036e-02  3.5391298914767555e-02  3.4004412231027611e-02  3.2154212374153571e-02  2.9910543088760094e-02  2.7350776945271559e-02  2.4553403528037587e-02  2.1592191808569916e-02  1.8531480232703526e-02  1.5422935825717729e-02  1.2303911034157051e-02  9.1973482141108273e-03  6.1130540018173567e-03  3.0500907715300149e-03  0.0000000000000000e+00  0.0000000000000000e+00  3.5789070822440381e-03  7.1736333157102240e-03  1.0795791350640471e-02  1.4447298265273729e-02  1.8116531085431611e-02  2.1775517067439406e-02  2.5378516053076859e-02  2.8862315288905819e-02  3.2148458720135040e-02  3.5147460641918100e-02  3.7764812751137820e-02  3.9908312316950134e-02  4.1495968783906954e-02  4.2463552385251166e-02  4.2770793749768575e-02  4.2405365413401147e-02  4.1384069323691541e-02  3.9751066403706632e-02  3.7573428019927975e-02  3.4934669218643938e-02  3.1927164746429322e-02  2.8644416797154182e-02  2.5174049152332338e-02  2.1592191808569909e-02  1.7959655081714307e-02  1.4320030960404850e-02  1.0699643958450697e-02  7.1091239559363285e-03  3.5462896982041809e-03  0.0000000000000000e+00  0.0000000000000000e+00  4.0591634438717330e-03  8.1378423072515672e-03  1.2250780582734138e-02  1.6401521690016036e-02  2.0577919287218655e-02  2.4748816972471346e-02  2.8862315288905805e-02  3.2846011073336491e-02  3.6609488304529508e-02  4.0049144083646390e-02  4.3055151438578430e-02  4.5520023849528947e-02  4.7347915776148206e-02  4.8463549677002490e-02  4.8819581904131985e-02  4.8401356802737550e-02  4.7228347037840519e-02  4.5352075609571711e-02  4.2850853692263963e-02  3.9822129227800249e-02  3.6373530614087185e-02  3.2613765981392713e-02  2.8644416797154192e-02  2.4553403528037577e-02  2.0410578144459159e-02  1.6265585100942628e-02  1.2147879005327789e-02  8.0686160458879781e-03  4.0240455918624162e-03  0.0000000000000000e+00  0.0000000000000000e+00  4.5092330658043547e-03  9.0419133661311917e-03  1.3616107343812545e-02  1.8237230782978005e-02  2.2892923548978834e-02  2.7549214982566860e-02  3.2148458720135019e-02  3.6609488304529481e-02  4.0830334206622722e-02  4.4693626192324580e-02  4.8074482918908791e-02  5.0850297398353818e-02  5.2911432975677512e-02  5.4171545947548763e-02  5.4576144630340682e-02  5.4108143780427928e-02  5.2789577725741638e-02  5.0679221861998289e-02  4.7866510888448843e-02  4.4462688493529440e-02  4.0590463398169248e-02  3.6373530614087213e-02  3.1927164746429336e-02  2.7350776945271556e-02  2.2722943040078755e-02  1.8099043452441229e-02  1.3511363994291202e-02  8.9713153297047207e-03  4.4733333813417051e-03  0.0000000000000000e+00  0.0000000000000000e+00  4.9174594670383393e-03  9.8623455968201695e-03  1.4856057893332291e-02  1.9906004313579782e-02  2.4999872321282535e-02  3.0101296805499906e-02  3.5147460641918080e-02  4.0049144083646362e-02  4.4693626192324580e-02  4.8950606754768825e-02  5.2680957824981951e-02  5.5747666076725329e-02  5.8027869674291070e-02  5.9424537946656877e-02  5.9876204016464665e-02  5.9363317981787296e-02  5.7910245832530301e-02  5.5582613679822458e-02  5.2480436520612753e-02  4.8728104114597326e-02  4.4462688493529474e-02  3.9822129227800304e-02  3.4934669218643959e-02  2.9910543088760094e-02  2.4836474323502382e-02  1.9773116800916445e-02  1.4755247905173945e-02  9.7943105814337732e-03  4.8828031755492668e-03  0.0000000000000000e+00  0.0000000000000000e+00  5.2717311105817235e-03  1.0574685414012068e-02  1.5933393555198218e-02  2.1357220477298520e-02  2.6834091822440221e-02  3.2325705170379762e-02  3.7764812751137800e-02  4.3055151438578403e-02  4.8074482918908763e-02  5.2680957824981937e-02  5.6722625865219388e-02  6.0049416229279347e-02  6.2526395325318757e-02  6.4046697917421028e-02  6.4542356089103151e-02  6.3991411851267430e-02  6.2420203964218546e-02  5.9900476042098569e-02  5.6541788779170876e-02  5.2480436520612760e-02  4.7866510888448892e-02  4.2850853692264060e-02  3.7573428019928017e-02  3.2154212374153578e-02  2.6687217581101048e-02  2.1237754897394951e-02  1.5842720929738183e-02  1.0513438727479528e-02  5.2404943241375537e-03  0.0000000000000000e+00  0.0000000000000000e+00  5.5603923935910659e-03  1.1155370034387711e-02  1.6812169379083208e-02  2.2541909037638856e-02  2.8332857733898677e-02  3.4145254868625283e-02  3.9908312316950099e-02  4.5520023849528912e-02  5.0850297398353783e-02  5.5747666076725287e-02  6.0049416229279312e-02  6.3594431427971651e-02  6.6237482353556518e-02  6.7863231467624657e-02  6.8398017189874802e-02  6.7817643096344291e-02  6.6149940264963222e-02  6.3471697669964827e-02  5.9900476042098603e-02  5.5582613679822500e-02  5.0679221861998365e-02  4.5352075609571808e-02  3.9751066403706709e-02  3.4004412231027660e-02  2.8212262485382639e-02  2.2443818859816299e-02  1.6737700333750990e-02  1.1105040103979925e-02  5.5347015435254394e-03  0.0000000000000000e+00  0.0000000000000000e+00  5.7732002821440469e-03  1.1583667971012519e-02  1.7460711151813229e-02  2.3416837373539671e-02  2.9440674362847374e-02  3.5491489687206210e-02  4.1495968783906878e-02  4.7347915776148122e-02  5.2911432975677401e-02  5.8027869674291001e-02  6.2526395325318673e-02  6.6237482353556393e-02  6.9007975221760470e-02  7.0715921136308410e-02  7.1283105075869005e-02  7.0683387930799368e-02  6.8945514823344170e-02  6.6149940264963167e-02  6.2420203964218546e-02  5.7910245832530315e-02  5.2789577725741707e-02  4.7228347037840623e-02  4.1384069323691604e-02  3.5391298914767590e-02  2.9354906468835144e-02  2.3347079545065728e-02  1.7407744742565370e-02  1.1547858347754836e-02  5.7549112377174626e-03  0.0000000000000000e+00  0.0000000000000000e+00  5.9022173550316477e-03  1.1843494419154178e-02  1.7854408435738191e-02  2.3948357608775499e-02  3.0114265828048589e-02  3.6310910734765389e-02  4.2463552385251055e-02  4.8463549677002379e-02  5.4171545947548624e-02  5.9424537946656746e-02  6.4046697917420903e-02  6.7863231467624546e-02  7.0715921136308341e-02  7.2478477732165522e-02  7.3069567369782068e-02  7.2461530360431917e-02  7.0683387930799368e-02  6.7817643096344207e-02  6.3991411851267374e-02  5.9363317981787275e-02  5.4108143780427942e-02  4.8401356802737605e-02  4.2405365413401196e-02  3.6258824516078036e-02  3.0069684768721981e-02  2.3912100597764538e-02  1.7826877333622516e-02  1.1824877751576632e-02  5.8927063288094720e-03  0.0000000000000000e+00  0.0000000000000000e+00  5.9425310934387967e-03  1.1924876535571116e-02  1.7977974727921227e-02  2.4115529197362217e-02  3.0326641448050307e-02  3.6570069560071805e-02  4.2770793749768457e-02  4.8819581904131860e-02  5.4576144630340537e-02  5.9876204016464527e-02  6.4542356089103026e-02  6.8398017189874649e-02  7.1283105075868922e-02  7.3069567369782026e-02  7.3674603836629909e-02  7.3069567369782054e-02  7.1283105075868949e-02  6.8398017189874677e-02  6.4542356089103067e-02  5.9876204016464610e-02  5.4576144630340669e-02  4.8819581904132041e-02  4.2770793749768582e-02  3.6570069560071902e-02  3.0326641448050386e-02  2.4115529197362259e-02  1.7977974727921255e-02  1.1924876535571135e-02  5.9425310934388053e-03  0.0000000000000000e+00  0.0000000000000000e+00  5.8927063288094564e-03  1.1824877751576599e-02  1.7826877333622468e-02  2.3912100597764472e-02  3.0069684768721891e-02  3.6258824516077932e-02  4.2405365413401057e-02  4.8401356802737446e-02  5.4108143780427817e-02  5.9363317981787164e-02  6.3991411851267277e-02  6.7817643096344138e-02  7.0683387930799271e-02  7.2461530360431847e-02  7.3069567369781985e-02  7.2478477732165481e-02  7.0715921136308313e-02  6.7863231467624491e-02  6.4046697917420889e-02  5.9424537946656808e-02  5.4171545947548749e-02  4.8463549677002497e-02  4.2463552385251152e-02  3.6310910734765452e-02  3.0114265828048638e-02  2.3948357608775530e-02  1.7854408435738205e-02  1.1843494419154181e-02  5.9022173550316520e-03  0.0000000000000000e+00  0.0000000000000000e+00  5.7549112377174427e-03  1.1547858347754798e-02  1.7407744742565318e-02  2.3347079545065649e-02  2.9354906468835047e-02  3.5391298914767479e-02  4.1384069323691458e-02  4.7228347037840443e-02  5.2789577725741527e-02  5.7910245832530169e-02  6.2420203964218421e-02  6.6149940264963097e-02  6.8945514823344045e-02  7.0683387930799271e-02  7.1283105075868866e-02  7.0715921136308271e-02  6.9007975221760359e-02  6.6237482353556337e-02  6.2526395325318618e-02  5.8027869674291001e-02  5.2911432975677471e-02  4.7347915776148199e-02  4.1495968783906934e-02  3.5491489687206258e-02  2.9440674362847405e-02  2.3416837373539688e-02  1.7460711151813236e-02  1.1583667971012521e-02  5.7732002821440469e-03  0.0000000000000000e+00  0.0000000000000000e+00  5.5347015435254186e-03  1.1105040103979880e-02  1.6737700333750917e-02  2.2443818859816202e-02  2.8212262485382514e-02  3.4004412231027514e-02  3.9751066403706528e-02  4.5352075609571607e-02  5.0679221861998157e-02  5.5582613679822306e-02  5.9900476042098402e-02  6.3471697669964661e-02  6.6149940264963042e-02  6.7817643096344096e-02  6.8398017189874580e-02  6.7863231467624463e-02  6.6237482353556323e-02  6.3594431427971540e-02  6.0049416229279222e-02  5.5747666076725225e-02  5.0850297398353742e-02  4.5520023849528912e-02  3.9908312316950093e-02  3.4145254868625290e-02  2.8332857733898691e-02  2.2541909037638863e-02  1.6812169379083208e-02  1.1155370034387709e-02  5.5603923935910651e-03  0.0000000000000000e+00  0.0000000000000000e+00  5.2404943241375354e-03  1.0513438727479486e-02  1.5842720929738121e-02  2.1237754897394864e-02  2.6687217581100934e-02  3.2154212374153474e-02  3.7573428019927857e-02  4.2850853692263872e-02  4.7866510888448698e-02  5.2480436520612579e-02  5.6541788779170675e-02  5.9900476042098409e-02  6.2420203964218386e-02  6.3991411851267235e-02  6.4542356089102970e-02  6.4046697917420833e-02  6.2526395325318576e-02  6.0049416229279187e-02  5.6722625865219291e-02  5.2680957824981896e-02  4.8074482918908736e-02  4.3055151438578410e-02  3.7764812751137793e-02  3.2325705170379762e-02  2.6834091822440238e-02  2.1357220477298530e-02  1.5933393555198228e-02  1.0574685414012068e-02  5.2717311105817243e-03  0.0000000000000000e+00  0.0000000000000000e+00  4.8828031755492511e-03  9.7943105814337402e-03  1.4755247905173892e-02  1.9773116800916379e-02  2.4836474323502299e-02  2.9910543088759994e-02  3.4934669218643820e-02  3.9822129227800124e-02  4.4462688493529301e-02  4.8728104114597173e-02  5.2480436520612586e-02  5.5582613679822319e-02  5.7910245832530141e-02  5.9363317981787123e-02  5.9876204016464478e-02  5.9424537946656704e-02  5.8027869674290924e-02  5.5747666076725176e-02  5.2680957824981854e-02  4.8950606754768769e-02  4.4693626192324545e-02  4.0049144083646362e-02  3.5147460641918073e-02  3.0101296805499899e-02  2.4999872321282542e-02  1.9906004313579785e-02  1.4856057893332303e-02  9.8623455968201729e-03  4.9174594670383402e-03  0.0000000000000000e+00  0.0000000000000000e+00  4.4733333813416895e-03  8.9713153297046912e-03  1.3511363994291157e-02  1.8099043452441167e-02  2.2722943040078679e-02  2.7350776945271469e-02  3.1927164746429211e-02  3.6373530614087060e-02  4.0590463398169102e-02  4.4462688493529308e-02  4.7866510888448746e-02  5.0679221861998185e-02  5.2789577725741527e-02  5.4108143780427755e-02  5.4576144630340516e-02  5.4171545947548590e-02  5.2911432975677360e-02  5.0850297398353679e-02  4.8074482918908694e-02  4.4693626192324511e-02  4.0830334206622680e-02  3.6609488304529481e-02  3.2148458720135019e-02  2.7549214982566846e-02  2.2892923548978837e-02  1.8237230782978005e-02  1.3616107343812552e-02  9.0419133661311917e-03  4.5092330658043547e-03  0.0000000000000000e+00  0.0000000000000000e+00  4.0240455918624024e-03  8.0686160458879504e-03  1.2147879005327740e-02  1.6265585100942573e-02  2.0410578144459089e-02  2.4553403528037501e-02  2.8644416797154074e-02  3.2613765981392588e-02  3.6373530614087081e-02  3.9822129227800145e-02  4.2850853692263907e-02  4.5352075609571642e-02  4.7228347037840436e-02  4.8401356802737411e-02  4.8819581904131847e-02  4.8463549677002352e-02  4.7347915776148081e-02  4.5520023849528815e-02  4.3055151438578340e-02  4.0049144083646321e-02  3.6609488304529453e-02  3.2846011073336470e-02  2.8862315288905798e-02  2.4748816972471329e-02  2.0577919287218645e-02  1.6401521690016036e-02  1.2250780582734143e-02  8.1378423072515638e-03  4.0591634438717312e-03  0.0000000000000000e+00  0.0000000000000000e+00  3.5462896982041674e-03  7.1091239559363008e-03  1.0699643958450654e-02  1.4320030960404797e-02  1.7959655081714241e-02  2.1592191808569829e-02  2.5174049152332231e-02  2.8644416797154074e-02  3.1927164746429225e-02  3.4934669218643827e-02  3.7573428019927864e-02  3.9751066403706535e-02  4.1384069323691437e-02  4.2405365413401022e-02  4.2770793749768422e-02  4.2463552385251034e-02  4.1495968783906836e-02  3.9908312316950016e-02  3.7764812751137716e-02  3.5147460641918024e-02  3.2148458720134984e-02  2.8862315288905784e-02  2.5378516053076824e-02  2.1775517067439378e-02  1.8116531085431591e-02  1.4447298265273719e-02  1.0795791350640462e-02  7.1736333157102162e-03  3.5789070822440337e-03  0.0000000000000000e+00  0.0000000000000000e+00  3.0500907715300023e-03  6.1130540018173290e-03  9.1973482141107839e-03  1.2303911034156996e-02  1.5422935825717661e-02  1.8531480232703446e-02  2.1592191808569812e-02  2.4553403528037476e-02  2.7350776945271448e-02  2.9910543088759980e-02  3.2154212374153446e-02  3.4004412231027493e-02  3.5391298914767430e-02  3.6258824516077891e-02  3.6570069560071750e-02  3.6310910734765334e-02  3.5491489687206168e-02  3.4145254868625213e-02  3.2325705170379700e-02  3.0101296805499847e-02  2.7549214982566812e-02  2.4748816972471322e-02  2.1775517067439368e-02  1.8695734125464381e-02  1.5563307003224430e-02  1.2417554306359595e-02  9.2829545626873684e-03  6.1702755213090994e-03  3.0788927700183331e-03  0.0000000000000000e+00  0.0000000000000000e+00  2.5436416549875587e-03  5.0969013460626204e-03  7.6659663466628033e-03  1.0250896595221343e-02  1.2843005747663297e-02  1.5422935825717661e-02  1.7959655081714231e-02  2.0410578144459068e-02  2.2722943040078658e-02  2.4836474323502285e-02  2.6687217581100934e-02  2.8212262485382503e-02  2.9354906468835019e-02  3.0069684768721863e-02  3.0326641448050265e-02  3.0114265828048541e-02  2.9440674362847311e-02  2.8332857733898618e-02  2.6834091822440176e-02  2.4999872321282490e-02  2.2892923548978816e-02  2.0577919287218641e-02  1.8116531085431587e-02  1.5563307003224423e-02  1.2962717167883275e-02  1.0347521840059777e-02  7.7384561564159404e-03  5.1451035567621926e-03  2.5677531727748793e-03  0.0000000000000000e+00  0.0000000000000000e+00  2.0330277669383698e-03  4.0728896686789313e-03  6.1239296196367431e-03  8.1856958131583130e-03  1.0250896595221343e-02  1.2303911034156996e-02  1.4320030960404788e-02  1.6265585100942555e-02  1.8099043452441153e-02  1.9773116800916368e-02  2.1237754897394861e-02  2.2443818859816191e-02  2.3347079545065631e-02  2.3912100597764448e-02  2.4115529197362179e-02  2.3948357608775447e-02  2.3416837373539612e-02  2.2541909037638797e-02  2.1357220477298475e-02  1.9906004313579747e-02  1.8237230782977988e-02  1.6401521690016029e-02  1.444729826527371