<?xml version="1.0"?>
<VTKFile type="UnstructuredGrid"  version="0.1"  >
<UnstructuredGrid>
<Piece  NumberOfPoints="961" NumberOfCells="1800">
<Points>
<DataArray  type="Float64"  NumberOfComponents="3"  format="ascii">-2 -2 0  -1.866666666666667 -2 0  -1.733333333333333 -2 0  -1.6 -2 0  -1.466666666666667 -2 0  -1.333333333333333 -2 0  -1.2 -2 0  -1.066666666666667 -2 0  -0.9333333333333333 -2 0  -0.8 -2 0  -0.6666666666666667 -2 0  -0.5333333333333334 -2 0  -0.3999999999999999 -2 0  -0.2666666666666666 -2 0  -0.1333333333333333 -2 0  0 -2 0  0.1333333333333333 -2 0  0.2666666666666666 -2 0  0.3999999999999999 -2 0  0.5333333333333332 -2 0  0.6666666666666665 -2 0  0.7999999999999998 -2 0  0.9333333333333331 -2 0  1.066666666666667 -2 0  1.2 -2 0  1.333333333333333 -2 0  1.466666666666667 -2 0  1.6 -2 0  1.733333333333333 -2 0  1.866666666666667 -2 0  2 -2 0  -2 -1.866666666666667 0  -1.866666666666667 -1.866666666666667 0  -1.733333333333333 -1.866666666666667 0  -1.6 -1.866666666666667 0  -1.466666666666667 -1.866666666666667 0  -1.333333333333333 -1.866666666666667 0  -1.2 -1.866666666666667 0  -1.066666666666667 -1.866666666666667 0  -0.9333333333333333 -1.866666666666667 0  -0.8 -1.866666666666667 0  -0.6666666666666667 -1.866666666666667 0  -0.5333333333333334 -1.866666666666667 0  -0.3999999999999999 -1.866666666666667 0  -0.2666666666666666 -1.866666666666667 0  -0.1333333333333333 -1.866666666666667 0  0 -1.866666666666667 0  0.1333333333333333 -1.866666666666667 0  0.2666666666666666 -1.866666666666667 0  0.3999999999999999 -1.866666666666667 0  0.5333333333333332 -1.866666666666667 0  0.6666666666666665 -1.866666666666667 0  0.7999999999999998 -1.866666666666667 0  0.9333333333333331 -1.866666666666667 0  1.066666666666667 -1.866666666666667 0  1.2 -1.866666666666667 0  1.333333333333333 -1.866666666666667 0  1.466666666666667 -1.866666666666667 0  1.6 -1.866666666666667 0  1.733333333333333 -1.866666666666667 0  1.866666666666667 -1.866666666666667 0  2 -1.866666666666667 0  -2 -1.733333333333333 0  -1.866666666666667 -1.733333333333333 0  -1.733333333333333 -1.733333333333333 0  -1.6 -1.733333333333333 0  -1.466666666666667 -1.733333333333333 0  -1.333333333333333 -1.733333333333333 0  -1.2 -1.733333333333333 0  -1.066666666666667 -1.733333333333333 0  -0.9333333333333333 -1.733333333333333 0  -0.8 -1.733333333333333 0  -0.6666666666666667 -1.733333333333333 0  -0.5333333333333334 -1.733333333333333 0  -0.3999999999999999 -1.733333333333333 0  -0.2666666666666666 -1.733333333333333 0  -0.1333333333333333 -1.733333333333333 0  0 -1.733333333333333 0  0.1333333333333333 -1.733333333333333 0  0.2666666666666666 -1.733333333333333 0  0.3999999999999999 -1.733333333333333 0  0.5333333333333332 -1.733333333333333 0  0.6666666666666665 -1.733333333333333 0  0.7999999999999998 -1.733333333333333 0  0.9333333333333331 -1.733333333333333 0  1.066666666666667 -1.733333333333333 0  1.2 -1.733333333333333 0  1.333333333333333 -1.733333333333333 0  1.466666666666667 -1.733333333333333 0  1.6 -1.733333333333333 0  1.733333333333333 -1.733333333333333 0  1.866666666666667 -1.733333333333333 0  2 -1.733333333333333 0  -2 -1.6 0  -1.866666666666667 -1.6 0  -1.733333333333333 -1.6 0  -1.6 -1.6 0  -1.466666666666667 -1.6 0  -1.333333333333333 -1.6 0  -1.2 -1.6 0  -1.066666666666667 -1.6 0  -0.9333333333333333 -1.6 0  -0.8 -1.6 0  -0.6666666666666667 -1.6 0  -0.5333333333333334 -1.6 0  -0.3999999999999999 -1.6 0  -0.2666666666666666 -1.6 0  -0.1333333333333333 -1.6 0  0 -1.6 0  0.1333333333333333 -1.6 0  0.2666666666666666 -1.6 0  0.3999999999999999 -1.6 0  0.5333333333333332 -1.6 0  0.6666666666666665 -1.6 0  0.7999999999999998 -1.6 0  0.9333333333333331 -1.6 0  1.066666666666667 -1.6 0  1.2 -1.6 0  1.333333333333333 -1.6 0  1.466666666666667 -1.6 0  1.6 -1.6 0  1.733333333333333 -1.6 0  1.866666666666667 -1.6 0  2 -1.6 0  -2 -1.466666666666667 0  -1.866666666666667 -1.466666666666667 0  -1.733333333333333 -1.466666666666667 0  -1.6 -1.466666666666667 0  -1.466666666666667 -1.466666666666667 0  -1.333333333333333 -1.466666666666667 0  -1.2 -1.466666666666667 0  -1.066666666666667 -1.466666666666667 0  -0.9333333333333333 -1.466666666666667 0  -0.8 -1.466666666666667 0  -0.6666666666666667 -1.466666666666667 0  -0.5333333333333334 -1.466666666666667 0  -0.3999999999999999 -1.466666666666667 0  -0.2666666666666666 -1.466666666666667 0  -0.1333333333333333 -1.466666666666667 0  0 -1.466666666666667 0  0.1333333333333333 -1.466666666666667 0  0.2666666666666666 -1.466666666666667 0  0.3999999999999999 -1.466666666666667 0  0.5333333333333332 -1.466666666666667 0  0.6666666666666665 -1.466666666666667 0  0.7999999999999998 -1.466666666666667 0  0.9333333333333331 -1.466666666666667 0  1.066666666666667 -1.466666666666667 0  1.2 -1.466666666666667 0  1.333333333333333 -1.466666666666667 0  1.466666666666667 -1.466666666666667 0  1.6 -1.466666666666667 0  1.733333333333333 -1.466666666666667 0  1.866666666666667 -1.466666666666667 0  2 -1.466666666666667 0  -2 -1.333333333333333 0  -1.866666666666667 -1.333333333333333 0  -1.733333333333333 -1.333333333333333 0  -1.6 -1.333333333333333 0  -1.466666666666667 -1.333333333333333 0  -1.333333333333333 -1.333333333333333 0  -1.2 -1.333333333333333 0  -1.066666666666667 -1.333333333333333 0  -0.9333333333333333 -1.333333333333333 0  -0.8 -1.333333333333333 0  -0.6666666666666667 -1.333333333333333 0  -0.5333333333333334 -1.333333333333333 0  -0.3999999999999999 -1.333333333333333 0  -0.2666666666666666 -1.333333333333333 0  -0.1333333333333333 -1.333333333333333 0  0 -1.333333333333333 0  0.1333333333333333 -1.333333333333333 0  0.2666666666666666 -1.333333333333333 0  0.3999999999999999 -1.333333333333333 0  0.5333333333333332 -1.333333333333333 0  0.6666666666666665 -1.333333333333333 0  0.7999999999999998 -1.333333333333333 0  0.9333333333333331 -1.333333333333333 0  1.066666666666667 -1.333333333333333 0  1.2 -1.333333333333333 0  1.333333333333333 -1.333333333333333 0  1.466666666666667 -1.333333333333333 0  1.6 -1.333333333333333 0  1.733333333333333 -1.333333333333333 0  1.866666666666667 -1.333333333333333 0  2 -1.333333333333333 0  -2 -1.2 0  -1.866666666666667 -1.2 0  -1.733333333333333 -1.2 0  -1.6 -1.2 0  -1.466666666666667 -1.2 0  -1.333333333333333 -1.2 0  -1.2 -1.2 0  -1.066666666666667 -1.2 0  -0.9333333333333333 -1.2 0  -0.8 -1.2 0  -0.6666666666666667 -1.2 0  -0.5333333333333334 -1.2 0  -0.3999999999999999 -1.2 0  -0.2666666666666666 -1.2 0  -0.1333333333333333 -1.2 0  0 -1.2 0  0.1333333333333333 -1.2 0  0.2666666666666666 -1.2 0  0.3999999999999999 -1.2 0  0.5333333333333332 -1.2 0  0.6666666666666665 -1.2 0  0.7999999999999998 -1.2 0  0.9333333333333331 -1.2 0  1.066666666666667 -1.2 0  1.2 -1.2 0  1.333333333333333 -1.2 0  1.466666666666667 -1.2 0  1.6 -1.2 0  1.733333333333333 -1.2 0  1.866666666666667 -1.2 0  2 -1.2 0  -2 -1.066666666666667 0  -1.866666666666667 -1.066666666666667 0  -1.733333333333333 -1.066666666666667 0  -1.6 -1.066666666666667 0  -1.466666666666667 -1.066666666666667 0  -1.333333333333333 -1.066666666666667 0  -1.2 -1.066666666666667 0  -1.066666666666667 -1.066666666666667 0  -0.9333333333333333 -1.066666666666667 0  -0.8 -1.066666666666667 0  -0.6666666666666667 -1.066666666666667 0  -0.5333333333333334 -1.066666666666667 0  -0.3999999999999999 -1.066666666666667 0  -0.2666666666666666 -1.066666666666667 0  -0.1333333333333333 -1.066666666666667 0  0 -1.066666666666667 0  0.1333333333333333 -1.066666666666667 0  0.2666666666666666 -1.066666666666667 0  0.3999999999999999 -1.066666666666667 0  0.5333333333333332 -1.066666666666667 0  0.6666666666666665 -1.066666666666667 0  0.7999999999999998 -1.066666666666667 0  0.9333333333333331 -1.066666666666667 0  1.066666666666667 -1.066666666666667 0  1.2 -1.066666666666667 0  1.333333333333333 -1.066666666666667 0  1.466666666666667 -1.066666666666667 0  1.6 -1.066666666666667 0  1.733333333333333 -1.066666666666667 0  1.866666666666667 -1.066666666666667 0  2 -1.066666666666667 0  -2 -0.9333333333333333 0  -1.866666666666667 -0.9333333333333333 0  -1.733333333333333 -0.9333333333333333 0  -1.6 -0.9333333333333333 0  -1.466666666666667 -0.9333333333333333 0  -1.333333333333333 -0.9333333333333333 0  -1.2 -0.9333333333333333 0  -1.066666666666667 -0.9333333333333333 0  -0.9333333333333333 -0.9333333333333333 0  -0.8 -0.9333333333333333 0  -0.6666666666666667 -0.9333333333333333 0  -0.5333333333333334 -0.9333333333333333 0  -0.3999999999999999 -0.9333333333333333 0  -0.2666666666666666 -0.9333333333333333 0  -0.1333333333333333 -0.9333333333333333 0  0 -0.9333333333333333 0  0.1333333333333333 -0.9333333333333333 0  0.2666666666666666 -0.9333333333333333 0  0.3999999999999999 -0.9333333333333333 0  0.5333333333333332 -0.9333333333333333 0  0.6666666666666665 -0.9333333333333333 0  0.7999999999999998 -0.9333333333333333 0  0.9333333333333331 -0.9333333333333333 0  1.066666666666667 -0.9333333333333333 0  1.2 -0.9333333333333333 0  1.333333333333333 -0.9333333333333333 0  1.466666666666667 -0.9333333333333333 0  1.6 -0.9333333333333333 0  1.733333333333333 -0.9333333333333333 0  1.866666666666667 -0.9333333333333333 0  2 -0.9333333333333333 0  -2 -0.8 0  -1.866666666666667 -0.8 0  -1.733333333333333 -0.8 0  -1.6 -0.8 0  -1.466666666666667 -0.8 0  -1.333333333333333 -0.8 0  -1.2 -0.8 0  -1.066666666666667 -0.8 0  -0.9333333333333333 -0.8 0  -0.8 -0.8 0  -0.6666666666666667 -0.8 0  -0.5333333333333334 -0.8 0  -0.3999999999999999 -0.8 0  -0.2666666666666666 -0.8 0  -0.1333333333333333 -0.8 0  0 -0.8 0  0.1333333333333333 -0.8 0  0.2666666666666666 -0.8 0  0.3999999999999999 -0.8 0  0.5333333333333332 -0.8 0  0.6666666666666665 -0.8 0  0.7999999999999998 -0.8 0  0.9333333333333331 -0.8 0  1.066666666666667 -0.8 0  1.2 -0.8 0  1.333333333333333 -0.8 0  1.466666666666667 -0.8 0  1.6 -0.8 0  1.733333333333333 -0.8 0  1.866666666666667 -0.8 0  2 -0.8 0  -2 -0.6666666666666667 0  -1.866666666666667 -0.
[...]
<PointData  Scalars="f_578"> 
<DataArray  type="Float64"  Name="f_578"  format="ascii">0.0000000000000000e+00  0.0000000000000000e+00  0.0000000000000000e+00  0.0000000000000000e+00  0.0000000000000000e+00  0.0000000000000000e+00  0.0000000000000000e+00  0.0000000000000000e+00  0.0000000000000000e+00  0.0000000000000000e+00  0.0000000000000000e+00  0.0000000000000000e+00  0.0000000000000000e+00  0.0000000000000000e+00  0.0000000000000000e+00  0.0000000000000000e+00  0.0000000000000000e+00  0.0000000000000000e+00  0.0000000000000000e+00  0.0000000000000000e+00  0.0000000000000000e+00  0.0000000000000000e+00  0.0000000000000000e+00  0.0000000000000000e+00  0.0000000000000000e+00  0.0000000000000000e+00  0.0000000000000000e+00  0.0000000000000000e+00  0.0000000000000000e+00  0.0000000000000000e+00  0.0000000000000000e+00  0.0000000000000000e+00  4.8232672441376995e-04  9.6232535059051147e-04  1.4378254366281733e-03  1.9060221570668160e-03  2.3633255713018187e-03  2.8052649382867847e-03  3.2264838853780452e-03  3.6208411940667684e-03  3.9816182241534806e-03  4.3018217520300883e-03  4.5745595485252033e-03  4.7934562266963273e-03  4.9530700769386243e-03  5.0492690350450098e-03  5.0795264003788273e-03  5.0431045005060581e-03  4.9411063914039221e-03  4.7763903159474992e-03  4.5533569389183248e-03  4.2776331494984894e-03  3.9556866041639332e-03  3.5944109582834167e-03  3.2007225090960167e-03  2.7812051519102467e-03  2.3418331642678716e-03  1.8877917779014852e-03  1.4234053303394268e-03  9.5217374159817529e-04  4.7691284595877457e-04  0.0000000000000000e+00  0.0000000000000000e+00  9.6232535059051093e-04  1.9201962505610993e-03  2.8691974694837617e-03  3.8037304699859850e-03  4.7166473004091871e-03  5.5990392949798800e-03  6.4402196803270912e-03  7.2279214276926747e-03  7.9487103569499656e-03  8.5885906161492880e-03  9.1337571197731473e-03  9.5714299012162295e-03  9.8906915349835593e-03  1.0083243446016077e-02  1.0144001726547044e-02  1.0071468204169629e-02  9.8678363805766774e-03  9.5388213289734104e-03  9.0932334971076927e-03  8.5423441810051001e-03  7.8991114156217630e-03  7.1773466986591143e-03  6.3909045177015806e-03  5.5529689075934077e-03  4.6754962951631824e-03  3.7688544614475792e-03  2.8416764751189871e-03  1.9009285342376141e-03  9.5217374159817551e-04  0.0000000000000000e+00  0.0000000000000000e+00  1.4378254366281729e-03  2.8691974694837609e-03  4.2875283987684259e-03  5.6844951707076784e-03  7.0494588050643379e-03  8.3691301821937295e-03  9.6275340815956453e-03  1.0806300306186102e-02  1.1885280928235731e-02  1.2843459214221172e-02  1.3660082075949313e-02  1.4315918177813495e-02  1.4794522700445614e-02  1.5083381342551138e-02  1.5174813095431512e-02  1.5066534012402750e-02  1.4761820292289077e-02  1.4269253710761357e-02  1.3602079346145627e-02  1.2777247865807008e-02  1.1814246540364266e-02  1.0733840844007449e-02  9.5568507575801535e-03  8.3030739870160256e-03  6.9904454157795970e-03  5.6344924199115192e-03  4.2481134829807981e-03  2.8416764751189867e-03  1.4234053303394268e-03  0.0000000000000000e+00  0.0000000000000000e+00  1.9060221570668151e-03  3.8037304699859841e-03  5.6844951707076766e-03  7.5373856383203520e-03  9.3483766531561631e-03  1.1099887087681485e-02  1.2770720397016416e-02  1.4336445197358074e-02  1.5770214949535243e-02  1.7043981290635349e-02  1.8130010326553498e-02  1.9002570947613151e-02  1.9639635276909491e-02  2.0024419433247478e-02  2.0146601652797965e-02  2.0003085101301485e-02  1.9598221354319878e-02  1.8943471037514242e-02  1.8056541735432526e-02  1.6960100688104714e-02  1.5680203012796174e-02  1.4244600030541132e-02  1.2681095105003854e-02  1.1016098002484896e-02  9.2734975357001304e-03  7.4739318955551054e-03  5.6344924199115175e-03  3.7688544614475792e-03  1.8877917779014848e-03  0.0000000000000000e+00  0.0000000000000000e+00  2.3633255713018178e-03  4.7166473004091863e-03  7.0494588050643353e-03  9.3483766531561631e-03  1.1596131525903325e-02  1.3770975608446116e-02  1.5846594530535038e-02  1.7792573005329687e-02  1.9575414275225588e-02  2.1160057710559385e-02  2.2511781769573993e-02  2.3598328228567937e-02  2.4392046235791522e-02  2.4871838789848888e-02  2.5024704706719754e-02  2.4846707030385759e-02  2.4343260374863923e-02  2.3528706601185639e-02  2.2425229267495846e-02  2.1061230439718307e-02  1.9469348410866148e-02  1.7684324992497051e-02  1.5740934264779492e-02  1.3672163392208021e-02  1.1507796045779542e-02  9.2734975357001322e-03  6.9904454157795979e-03  4.6754962951631824e-03  2.3418331642678716e-03  0.0000000000000000e+00  0.0000000000000000e+00  2.8052649382867838e-03  5.5990392949798800e-03  8.3691301821937278e-03  1.1099887087681479e-02  1.3770975608446112e-02  1.6356649533393927e-02  1.8825629038158355e-02  2.1141645959010500e-02  2.3264658425291681e-02  2.5152669992155183e-02  2.6764019083844390e-02  2.8059941736033996e-02  2.9007164284887494e-02  2.9580262115610198e-02  2.9763532269422147e-02  2.9552173121290676e-02  2.8952639016343280e-02  2.7982131599607572e-02  2.6667288683906949e-02  2.5042220991014549e-02  2.3146114194351673e-02  2.1020650173959335e-02  1.8707504820696441e-02  1.6246153179938921e-02  1.3672163392208024e-02  1.1016098002484903e-02  8.3030739870160273e-03  5.5529689075934094e-03  2.7812051519102471e-03  0.0000000000000000e+00  0.0000000000000000e+00  3.2264838853780418e-03  6.4402196803270842e-03  9.6275340815956331e-03  1.2770720397016395e-02  1.5846594530535024e-02  1.8825629038158345e-02  2.1671792542151465e-02  2.4343167943339149e-02  2.6793354887293796e-02  2.8973583565298559e-02  3.0835385309031932e-02  3.2333590769040396e-02  3.3429370649004322e-02  3.4093008311510749e-02  3.4306106039681220e-02  3.4062979460264167e-02  3.3371082522418966e-02  3.2250416526231770e-02  3.0731994338596819e-02  2.8855537202401808e-02  2.6666661047177888e-02  2.4213852100163535e-02  2.1545535042985214e-02  1.8707504820696434e-02  1.5740934264779481e-02  1.2681095105003849e-02  9.5568507575801483e-03  6.3909045177015780e-03  3.2007225090960154e-03  0.0000000000000000e+00  0.0000000000000000e+00  3.6208411940667636e-03  7.2279214276926643e-03  1.0806300306186088e-02  1.4336445197358052e-02  1.7792573005329663e-02  2.1141645959010472e-02  2.4343167943339145e-02  2.7349867630950868e-02  3.0109277932030290e-02  3.2566132054385882e-02  3.4665402725741125e-02  3.6355724539932015e-02  3.7592873791660611e-02  3.8342948934826093e-02  3.8584907567254113e-02  3.8312175481777122e-02  3.7533144208243031e-02  3.6270501796366643e-02  3.4559477871965200e-02  3.2445207185345749e-02  2.9979507859458895e-02  2.7217419806282346e-02  2.4213852100163535e-02  2.1020650173959321e-02  1.7684324992497044e-02  1.4244600030541123e-02  1.0733840844007445e-02  7.1773466986591100e-03  3.5944109582834163e-03  0.0000000000000000e+00  0.0000000000000000e+00  3.9816182241534754e-03  7.9487103569499569e-03  1.1885280928235716e-02  1.5770214949535212e-02  1.9575414275225560e-02  2.3264658425291646e-02  2.6793354887293779e-02  3.0109277932030276e-02  3.3154310215184508e-02  3.5867102029395706e-02  3.8186457723396752e-02  4.0055160563370294e-02  4.1423871921001783e-02  4.2254703580846750e-02  4.2524074530620778e-02  4.2224529552117022e-02  4.1365310216981109e-02  3.9971613931733860e-02  3.8082631203155595e-02  3.5748591111649158e-02  3.3027149248635715e-02  2.9979507859458913e-02  2.6666661047177888e-02  2.3146114194351659e-02  1.9469348410866144e-02  1.5680203012796171e-02  1.1814246540364266e-02  7.8991114156217630e-03  3.9556866041639350e-03  0.0000000000000000e+00  0.0000000000000000e+00  4.3018217520300822e-03  8.5885906161492793e-03  1.2843459214221153e-02  1.7043981290635325e-02  2.1160057710559368e-02  2.5152669992155152e-02  2.8973583565298538e-02  3.2566132054385868e-02  3.5867102029395706e-02  3.8809629054080447e-02  4.1326899804438974e-02  4.3356345827771633e-02  4.4843929685458188e-02  4.5748081215985219e-02  4.6042853560017971e-02  4.5719940044020295e-02  4.4789317671376769e-02  4.3278443623550295e-02  4.1230102923310794e-02  3.8699161029444047e-02  3.5748591111649144e-02  3.2445207185345749e-02  2.8855537202401804e-02  2.5042220991014538e-02  2.1061230439718311e-02  1.6960100688104725e-02  1.2777247865807020e-02  8.5423441810051071e-03  4.2776331494984920e-03  0.0000000000000000e+00  0.0000000000000000e+00  4.5745595485251998e-03  9.1337571197731404e-03  1.3660082075949296e-02  1.8130010326553470e-02  2.2511781769573951e-02  2.6764019083844355e-02  3.0835385309031915e-02  3.4665402725741104e-02  3.8186457723396745e-02  4.1326899804438967e-02  4.4015017421864450e-02  4.6183554336445679e-02  4.7774336704197111e-02  4.8742532427387845e-02  4.9060075144152997e-02  4.8717861165301496e-02  4.7726462179542774e-02  4.6115271059574588e-02  4.3930185342442675e-02  4.1230102923310787e-02  3.8082631203155574e-02  3.4559477871965193e-02  3.0731994338596837e-02  2.6667288683906949e-02  2.2425229267495857e-02  1.8056541735432551e-02  1.3602079346145655e-02  9.0932334971077049e-03  4.5533569389183300e-03  0.0000000000000000e+00  0.0000000000000000e+00  4.7934562266963229e-03  9.5714299012162225e-03  1.4315918177813481e-02  1.9002570947613127e-02  2.3598328228567896e-02  2.8059941736033957e-02  3.2333590769040355e-02  3.6355724539931980e-02  4.0055160563370260e-02  4.3356345827771592e-02  4.6183554336445651e-02  4.8465667407044409e-02  5.0141082232936042e-02  5.1162240438315416e-02  5.1499277851469558e-02  5.1142375940428274e-02  5.0102537769994002e-02  4.8410697293383757e-02  4.6115271059574595e-02  4.3278443623550315e-02  3.9971613931733881e-02  3.6270501796366678e-02  3.2250416526231805e-02  2.7982131599607590e-02  2.3528706601185657e-02  1.8943471037514269e-02  1.4269253710761388e-02  9.5388213289734278e-03  4.7763903159475053e-03  0.0000000000000000e+00  0.0000000000000000e+00  4.9530700769386199e-03  9.8906915349835506e-03  1.4794522700445600e-02  1.9639635276909453e-02  2.4392046235791470e-02  2.9007164284887439e-02  3.3429370649004253e-02  3.7592873791660528e-02  4.1423871921001713e-02  4.4843929685458139e-02  4.7774336704197076e-02  5.0141082232936014e-02  5.1879973636317078e-02  5.2941368380528771e-02  5.3293997259595334e-02  5.2927437764956752e-02  5.1852944480172761e-02  5.0102537769993960e-02  4.7726462179542746e-02  4.4789317671376783e-02  4.1365310216981130e-02  3.7533144208243059e-02  3.3371082522419000e-02  2.8952639016343280e-02  2.4343260374863937e-02  1.9598221354319902e-02  1.4761820292289092e-02  9.8678363805766913e-03  4.9411063914039290e-03  0.0000000000000000e+00  0.0000000000000000e+00  5.0492690350450063e-03  1.0083243446016072e-02  1.5083381342551118e-02  2.0024419433247440e-02  2.4871838789848832e-02  2.9580262115610118e-02  3.4093008311510659e-02  3.8342948934826003e-02  4.2254703580846646e-02  4.5748081215985135e-02  4.8742532427387776e-02  5.1162240438315354e-02  5.2941368380528743e-02  5.4028919374071685e-02  5.4392672481153523e-02  5.4021739411614027e-02  5.2927437764956703e-02  5.1142375940428211e-02  4.8717861165301496e-02  4.5719940044020281e-02  4.2224529552117016e-02  3.8312175481777143e-02  3.4062979460264160e-02  2.9552173121290652e-02  2.4846707030385759e-02  2.0003085101301499e-02  1.5066534012402773e-02  1.0071468204169645e-02  5.0431045005060642e-03  0.0000000000000000e+00  0.0000000000000000e+00  5.0795264003788230e-03  1.0144001726547041e-02  1.5174813095431490e-02  2.0146601652797930e-02  2.5024704706719702e-02  2.9763532269422067e-02  3.4306106039681129e-02  3.8584907567254023e-02  4.2524074530620667e-02  4.6042853560017867e-02  4.9060075144152927e-02  5.1499277851469460e-02  5.3293997259595265e-02  5.4392672481153502e-02  5.4762628358651609e-02  5.4392672481153509e-02  5.3293997259595272e-02  5.1499277851469467e-02  4.9060075144152934e-02  4.6042853560017909e-02  4.2524074530620744e-02  3.8584907567254106e-02  3.4306106039681199e-02  2.9763532269422108e-02  2.5024704706719737e-02  2.0146601652797969e-02  1.5174813095431523e-02  1.0144001726547058e-02  5.0795264003788325e-03  0.0000000000000000e+00  0.0000000000000000e+00  5.0431045005060494e-03  1.0071468204169619e-02  1.5066534012402724e-02  2.0003085101301440e-02  2.4846707030385697e-02  2.9552173121290586e-02  3.4062979460264084e-02  3.8312175481777032e-02  4.2224529552116925e-02  4.5719940044020205e-02  4.8717861165301427e-02  5.1142375940428177e-02  5.2927437764956668e-02  5.4021739411613992e-02  5.4392672481153488e-02  5.4028919374071623e-02  5.2941368380528667e-02  5.1162240438315305e-02  4.8742532427387734e-02  4.5748081215985149e-02  4.2254703580846709e-02  3.8342948934826079e-02  3.4093008311510721e-02  2.9580262115610153e-02  2.4871838789848864e-02  2.0024419433247471e-02  1.5083381342551137e-02  1.0083243446016079e-02  5.0492690350450115e-03  0.0000000000000000e+00  0.0000000000000000e+00  4.9411063914039099e-03  9.8678363805766549e-03  1.4761820292289042e-02  1.9598221354319826e-02  2.4343260374863850e-02  2.8952639016343193e-02  3.3371082522418875e-02  3.7533144208242934e-02  4.1365310216980984e-02  4.4789317671376651e-02  4.7726462179542670e-02  5.0102537769993898e-02  5.1852944480172670e-02  5.2927437764956647e-02  5.3293997259595230e-02  5.2941368380528660e-02  5.1879973636316967e-02  5.0141082232935896e-02  4.7774336704196993e-02  4.4843929685458098e-02  4.1423871921001720e-02  3.7592873791660576e-02  3.3429370649004288e-02  2.9007164284887459e-02  2.4392046235791505e-02  1.9639635276909474e-02  1.4794522700445609e-02  9.8906915349835523e-03  4.9530700769386225e-03  0.0000000000000000e+00  0.0000000000000000e+00  4.7763903159474862e-03  9.5388213289733879e-03  1.4269253710761320e-02  1.8943471037514183e-02  2.3528706601185563e-02  2.7982131599607472e-02  3.2250416526231680e-02  3.6270501796366532e-02  3.9971613931733721e-02  4.3278443623550163e-02  4.6115271059574456e-02  4.8410697293383632e-02  5.0102537769993877e-02  5.1142375940428142e-02  5.1499277851469405e-02  5.1162240438315250e-02  5.0141082232935869e-02  4.8465667407044256e-02  4.6183554336445540e-02  4.3356345827771509e-02  4.0055160563370211e-02  3.6355724539931980e-02  3.2333590769040348e-02  2.8059941736033954e-02  2.3598328228567902e-02  1.9002570947613127e-02  1.4315918177813483e-02  9.5714299012162191e-03  4.7934562266963238e-03  0.0000000000000000e+00  0.0000000000000000e+00  4.5533569389183135e-03  9.0932334971076702e-03  1.3602079346145587e-02  1.8056541735432471e-02  2.2425229267495763e-02  2.6667288683906859e-02  3.0731994338596708e-02  3.4559477871965068e-02  3.8082631203155450e-02  4.1230102923310648e-02  4.3930185342442543e-02  4.6115271059574456e-02  4.7726462179542656e-02  4.8717861165301392e-02  4.9060075144152858e-02  4.8742532427387686e-02  4.7774336704196924e-02  4.6183554336445505e-02  4.4015017421864318e-02  4.1326899804438891e-02  3.8186457723396683e-02  3.4665402725741097e-02  3.0835385309031901e-02  2.6764019083844348e-02  2.2511781769573958e-02  1.8130010326553477e-02  1.3660082075949301e-02  9.1337571197731386e-03  4.5745595485251998e-03  0.0000000000000000e+00  0.0000000000000000e+00  4.2776331494984755e-03  8.5423441810050724e-03  1.2777247865806961e-02  1.6960100688104659e-02  2.1061230439718238e-02  2.5042220991014448e-02  2.8855537202401700e-02  3.2445207185345631e-02  3.5748591111649027e-02  3.8699161029443915e-02  4.1230102923310662e-02  4.3278443623550183e-02  4.4789317671376651e-02  4.5719940044020177e-02  4.6042853560017812e-02  4.5748081215985073e-02  4.4843929685458028e-02  4.3356345827771467e-02  4.1326899804438863e-02  3.8809629054080391e-02  3.5867102029395657e-02  3.2566132054385862e-02  2.8973583565298520e-02  2.5152669992155138e-02  2.1160057710559375e-02  1.7043981290635331e-02  1.2843459214221160e-02  8.5885906161492793e-03  4.3018217520300831e-03  0.0000000000000000e+00  0.0000000000000000e+00  3.9556866041639185e-03  7.8991114156217335e-03  1.1814246540364219e-02  1.5680203012796108e-02  1.9469348410866075e-02  2.3146114194351568e-02  2.6666661047177791e-02  2.9979507859458791e-02  3.3027149248635583e-02  3.5748591111649020e-02  3.8082631203155470e-02  3.9971613931733742e-02  4.1365310216980984e-02  4.2224529552116870e-02  4.2524074530620626e-02  4.2254703580846611e-02  4.1423871921001637e-02  4.0055160563370142e-02  3.8186457723396655e-02  3.5867102029395651e-02  3.3154310215184474e-02  3.0109277932030273e-02  2.6793354887293765e-02  2.3264658425291643e-02  1.9575414275225560e-02  1.5770214949535215e-02  1.1885280928235716e-02  7.9487103569499586e-03  3.9816182241534754e-03  0.0000000000000000e+00  0.0000000000000000e+00  3.5944109582834011e-03  7.1773466986590840e-03  1.0733840844007397e-02  1.4244600030541066e-02  1.7684324992496985e-02  2.1020650173959248e-02  2.4213852100163444e-02  2.7217419806282242e-02  2.9979507859458788e-02  3.2445207185345624e-02  3.4559477871965082e-02  3.6270501796366546e-02  3.7533144208242927e-02  3.8312175481777004e-02  3.8584907567253995e-02  3.8342948934825975e-02  3.7592873791660486e-02  3.6355724539931890e-02  3.4665402725741042e-02  3.2566132054385827e-02  3.0109277932030241e-02  2.7349867630950844e-02  2.4343167943339131e-02  2.1141645959010458e-02  1.7792573005329656e-02  1.4336445197358048e-02  1.0806300306186083e-02  7.2279214276926643e-03  3.6208411940667619e-03  0.0000000000000000e+00  0.0000000000000000e+00  3.2007225090960024e-03  6.3909045177015511e-03  9.5568507575801050e-03  1.2681095105003794e-02  1.5740934264779419e-02  1.8707504820696372e-02  2.1545535042985130e-02  2.4213852100163438e-02  2.6666661047177777e-02  2.8855537202401700e-02  3.0731994338596715e-02  3.2250416526231680e-02  3.3371082522418861e-02  3.4062979460264056e-02  3.4306106039681095e-02  3.4093008311510631e-02  3.3429370649004198e-02  3.2333590769040271e-02  3.0835385309031852e-02  2.8973583565298500e-02  2.6793354887293744e-02  2.4343167943339118e-02  2.1671792542151441e-02  1.8825629038158317e-02  1.5846594530535007e-02  1.2770720397016390e-02  9.6275340815956227e-03  6.4402196803270790e-03  3.2264838853780392e-03  0.0000000000000000e+00  0.0000000000000000e+00  2.7812051519102332e-03  5.5529689075933808e-03  8.3030739870159839e-03  1.1016098002484844e-02  1.3672163392207960e-02  1.6246153179938848e-02  1.8707504820696358e-02  2.1020650173959231e-02  2.3146114194351565e-02  2.5042220991014434e-02  2.6667288683906845e-02  2.7982131599607465e-02  2.8952639016343162e-02  2.9552173121290545e-02  2.9763532269422001e-02  2.9580262115610063e-02  2.9007164284887369e-02  2.8059941736033881e-02  2.6764019083844296e-02  2.5152669992155107e-02  2.3264658425291625e-02  2.1141645959010451e-02  1.8825629038158313e-02  1.6356649533393896e-02  1.3770975608446090e-02  1.1099887087681459e-02  8.3691301821937052e-03  5.5990392949798662e-03  2.8052649382867782e-03  0.0000000000000000e+00  0.0000000000000000e+00  2.3418331642678617e-03  4.6754962951631616e-03  6.9904454157795649e-03  9.2734975357000871e-03  1.1507796045779489e-02  1.3672163392207960e-02  1.5740934264779412e-02  1.7684324992496961e-02  1.9469348410866050e-02  2.1061230439718217e-02  2.2425229267495773e-02  2.3528706601185546e-02  2.4343260374863833e-02  2.4846707030385665e-02  2.5024704706719646e-02  2.4871838789848784e-02  2.4392046235791418e-02  2.3598328228567843e-02  2.2511781769573903e-02  2.1160057710559326e-02  1.9575414275225540e-02  1.7792573005329649e-02  1.5846594530535003e-02  1.3770975608446088e-02  1.1596131525903299e-02  9.3483766531561423e-03  7.0494588050643223e-03  4.7166473004091776e-03  2.3633255713018143e-03  0.0000000000000000e+00  0.0000000000000000e+00  1.8877917779014767e-03  3.7688544614475623e-03  5.6344924199114924e-03  7.4739318955550698e-03  9.2734975357000888e-03  1.1016098002484848e-02  1.2681095105003792e-02  1.4244600030541055e-02  1.5680203012796098e-02  1.6960100688104645e-02  1.8056541735432464e-02  1.8943471037514172e-02  1.9598221354319805e-02  2.0003085101301415e-02  2.0146601652797889e-02  2.0024419433247398e-02  1.9639635276909408e-02  1.9002570947613071e-02  1.8130010326553429e-02  1.7043981290635293e-02  1.5770214949535195e-02  1.4336445197358039e-02  1.277072039701638